[Molden Format]
[Atoms] Angs
 c       1                    6  6.550000000000e-01  0.000000000000e+00 -1.000000000000e-03
 c       2                    6 -6.550000000000e-01  0.000000000000e+00 -5.000000000000e-04
 h       3                    1  1.195000000000e+00  9.353000000000e-01  0.000000000000e+00
 h       4                    1  1.195000000000e+00 -9.353000000000e-01  2.200000000000e-03
 h       5                    1 -1.194643000000e+00 -1.206000000000e-03  9.350060000000e-01
 h       6                    1 -1.195357000000e+00  1.206000000000e-03 -9.355940000000e-01
[GTO]
1
 s           5
      1.238401693800e+03      5.517365048110e-03
      1.862900499200e+02      4.108882855595e-02
      4.225117634600e+01      1.822538212649e-01
      1.167655793200e+01      4.682845943743e-01
      3.593050648200e+00      4.457581733600e-01
 s           1
      4.024514736300e-01      1.000000000000e+00
 s           1
      1.309018266800e-01      1.000000000000e+00
 p           3
      9.468097062100e+00      5.688833201104e-02
      2.010354514200e+00      3.129405933647e-01
      5.477100470700e-01      7.606501650914e-01
 p           1
      1.526861379500e-01      1.000000000000e+00
 d           1
      8.000000000000e-01      1.000000000000e+00

2
 s           5
      1.238401693800e+03      5.517365048110e-03
      1.862900499200e+02      4.108882855595e-02
      4.225117634600e+01      1.822538212649e-01
      1.167655793200e+01      4.682845943743e-01
      3.593050648200e+00      4.457581733600e-01
 s           1
      4.024514736300e-01      1.000000000000e+00
 s           1
      1.309018266800e-01      1.000000000000e+00
 p           3
      9.468097062100e+00      5.688833201104e-02
      2.010354514200e+00      3.129405933647e-01
      5.477100470700e-01      7.606501650914e-01
 p           1
      1.526861379500e-01      1.000000000000e+00
 d           1
      8.000000000000e-01      1.000000000000e+00

3
 s           3
      1.301070100000e+01      3.348548481299e-02
      1.962257200000e+00      2.347218708812e-01
      4.445379600000e-01      8.137702852596e-01
 s           1
      1.219496200000e-01      1.000000000000e+00
 p           1
      8.000000000000e-01      1.000000000000e+00

4
 s           3
      1.301070100000e+01      3.348548481299e-02
      1.962257200000e+00      2.347218708812e-01
      4.445379600000e-01      8.137702852596e-01
 s           1
      1.219496200000e-01      1.000000000000e+00
 p           1
      8.000000000000e-01      1.000000000000e+00

5
 s           3
      1.301070100000e+01      3.348548481299e-02
      1.962257200000e+00      2.347218708812e-01
      4.445379600000e-01      8.137702852596e-01
 s           1
      1.219496200000e-01      1.000000000000e+00
 p           1
      8.000000000000e-01      1.000000000000e+00

6
 s           3
      1.301070100000e+01      3.348548481299e-02
      1.962257200000e+00      2.347218708812e-01
      4.445379600000e-01      8.137702852596e-01
 s           1
      1.219496200000e-01      1.000000000000e+00
 p           1
      8.000000000000e-01      1.000000000000e+00


[5D]
[7F]
[9G]
[MO]
 Ene=  -11.294800
 Spin=  Alpha
 Occup=    2.000000
   1     0.0067174346790680
   2    -0.0022597088601614
   3     0.0054744047361990
   4     0.0013718398339610
   5    -0.0000000037726751
   6    -0.0000013620793465
   7    -0.0022776398675049
   8    -0.0000000209926121
   9    -0.0000014381096573
  10     0.0003065942802828
  11    -0.0000005476779199
  12     0.0000017318970855
  13     0.0001338865734867
  14    -0.0000000028799715
  15     0.9908474415269914
  16     0.0356339903165133
  17    -0.0245622058216444
  18    -0.0004447111071695
  19    -0.0000000013363349
  20     0.0000001690328699
  21    -0.0007315147467836
  22     0.0000000067401134
  23     0.0000009555328468
  24     0.0009195083794768
  25     0.0000002957743015
  26    -0.0000043793925955
  27     0.0016021664783633
  28    -0.0000000001817206
  29     0.0004374282914387
  30     0.0006962385357767
  31    -0.0006170225598385
  32    -0.0002489629899411
  33    -0.0000000626293498
  34     0.0004374203946247
  35     0.0006962093403711
  36    -0.0006170168489448
  37     0.0002489624868613
  38    -0.0000006468916505
  39    -0.0024151128110414
  40     0.0054899201611626
  41    -0.0006496379545301
  42    -0.0000015755378659
  43     0.0012348200881890
  44    -0.0024149391880592
  45     0.0054904397909821
  46    -0.0006507886210836
  47     0.0000015753843688
  48    -0.0012344525271204
 Ene=  -11.167228
 Spin=  Alpha
 Occup=    2.000000
   1     0.9905582348384718
   2     0.0366500429904920
   3    -0.0245359988749685
   4    -0.0002095795002775
   5     0.0000000181878303
   6     0.0000114141646750
   7     0.0008051596228618
   8    -0.0000000311916193
   9    -0.0000145060345455
  10    -0.0016079175319147
  11     0.0000031654122009
  12    -0.0000032328268320
  13     0.0001093401141210
  14     0.0000000117352453
  15    -0.0066900711746688
  16    -0.0029758316993857
  17     0.0056351575017540
  18    -0.0015669944871051
  19     0.0000000054108854
  20     0.0000005813530475
  21     0.0021217844074246
  22     0.0000000006250843
  23     0.0000062502432554
  24    -0.0002235097441891
  25     0.0000005597818633
  26     0.0000019217102400
  27    -0.0003650375423899
  28     0.0000000047642090
  29    -0.0024793332990083
  30     0.0054940835952099
  31     0.0006522263910579
  32     0.0012217853061598
  33     0.0000027474577421
  34    -0.0024793094694718
  35     0.0054940252333259
  36     0.0006522370756305
  37    -0.0012217920269669
  38     0.0000056189535991
  39     0.0004713930575868
  40     0.0006289884376996
  41     0.0006434411840225
  42     0.0000003448398782
  43    -0.0002824848110265
  44     0.0004728617099787
  45     0.0006359682218540
  46     0.0006438487807346
  47    -0.0000003443074677
  48     0.0002819413168177
 Ene=   -1.037177
 Spin=  Alpha
 Occup=    2.000000
   1     0.1827707313026565
   2    -0.3324546433858488
   3    -0.1125421065614286
   4     0.1356803327179087
   5    -0.0000003402395815
   6    -0.0001885093533230
   7     0.0299232383498637
   8     0.0000001537497530
   9    -0.0000300822855103
  10     0.0107244810424310
  11     0.0000208731186656
  12    -0.0000001102892402
  13    -0.0156068171103249
  14     0.0000000275480086
  15     0.2198621809524899
  16    -0.4313009470181752
  17    -0.1036592272759108
  18    -0.1248442563564071
  19    -0.0000002678551127
  20     0.0000034367192536
  21    -0.0112087238957646
  22    -0.0000002605072377
  23    -0.0000556667707893
  24     0.0070600008894433
  25     0.0000034088025777
  26     0.0000097456825875
  27    -0.0169842105769314
  28    -0.0000000273954217
  29    -0.0890465950901420
  30    -0.0085557559047356
  31     0.0093330913806953
  32     0.0118350755295989
  33     0.0000040496121934
  34    -0.0890459720722100
  35    -0.0085556979625066
  36     0.0093329698385525
  37    -0.0118349687723216
  38     0.0000327636126386
  39    -0.1214139273287658
  40    -0.0110397235106751
  41    -0.0103703244560024
  42    -0.0000186792566459
  43     0.0156968618222759
  44    -0.1213985461577747
  45    -0.0110865856669364
  46    -0.0103792915882281
  47     0.0000186760085461
  48    -0.0156864877181159
 Ene=   -0.782640
 Spin=  Alpha
 Occup=    2.000000
   1     0.1658845563207295
   2    -0.3127650612682879
   3    -0.1385974448750368
   4    -0.0791586144553776
   5    -0.0000014307764559
   6    -0.0003544782531587
   7    -0.0302731627518636
   8    -0.0000000660825879
   9    -0.0001004464245085
  10     0.0044128354697648
  11    -0.0000186726514746
  12     0.0000158590206122
  13     0.0083213238014734
  14    -0.0000000733158987
  15    -0.1327520996862855
  16     0.2708895861530399
  17     0.1208236203388147
  18    -0.2442968471560124
  19    -0.0000003703882061
  20    -0.0000724111012826
  21    -0.0895116309901997
  22    -0.0000003237384392
  23    -0.0000287020757096
  24     0.0162864398042000
  25     0.0000021791163237
  26    -0.0000312149022025
  27    -0.0058776377414182
  28    -0.0000000794195865
  29    -0.1733693037523012
  30    -0.0344018928448172
  31     0.0080413443818270
  32     0.0165025007322023
  33     0.0000058992671740
  34    -0.1733672706485654
  35    -0.0344015326404030
  36     0.0080411759194565
  37    -0.0165023252634514
  38     0.0000408529262771
  39     0.2074766730520217
  40     0.0384633625502262
  41     0.0056444850887002
  42     0.0000219685107410
  43    -0.0186353015747440
  44     0.2076269817700392
  45     0.0384471207913522
  46     0.0056649320820634
  47    -0.0000219877247375
  48     0.0186440802063757
 Ene=   -0.635292
 Spin=  Alpha
 Occup=    2.000000
   1     0.0001039025556687
   2    -0.0002443920334348
   3     0.0000764329475611
   4     0.0005880881785845
   5    -0.0008237187701808
   6     0.1145475313868622
   7     0.0001331034415133
   8    -0.0003160981729760
   9     0.0367806855518127
  10     0.0000257986000423
  11    -0.0160227669572097
  12    -0.0000002762741840
  13    -0.0000409574403122
  14     0.0000045282515536
  15     0.0000235471850184
  16    -0.0000788571571916
  17    -0.0000311743618236
  18    -0.0005579193571364
  19    -0.0008689928314760
  20     0.4448590299727611
  21    -0.0001987917731556
  22    -0.0004068969534019
  23     0.1674995491840736
  24     0.0000441317645189
  25    -0.0159813904002775
  26    -0.0000000856036975
  27    -0.0000250657574904
  28    -0.0000078628782048
  29    -0.0003366191626026
  30    -0.0000870493771854
  31     0.0000306812710438
  32     0.0000074032533326
  33     0.0027442723475062
  34     0.0008803673743534
  35     0.0001913703956173
  36    -0.0000360008750875
  37     0.0000564706868794
  38     0.0027439998934865
  39     0.3109354677377079
  40     0.0938482488642298
  41     0.0118633246361313
  42     0.0000119329697978
  43    -0.0146378943709371
  44    -0.3103524484026887
  45    -0.0936328470804292
  46    -0.0118795787832287
  47     0.0000118770239850
  48    -0.0145902797874046
 Ene=   -0.584177
 Spin=  Alpha
 Occup=    2.000000
   1     0.0203469790134300
   2    -0.0334951221511477
   3    -0.1032023186175283
   4    -0.4025812379507640
   5    -0.0000238595838137
   6    -0.0002209891649234
   7    -0.1236653378864931
   8    -0.0000102376142448
   9    -0.0001647192177968
  10    -0.0017504639805997
  11    -0.0000941101052575
  12     0.0000319155086353
  13     0.0237162454984808
  14    -0.0000004799669694
  15    -0.0356723451616739
  16     0.0907668567989559
  17     0.0123875230079592
  18     0.4013352473702586
  19    -0.0000092655870422
  20     0.0006065745074664
  21     0.1576517066736047
  22    -0.0000046023237630
  23     0.0002868675461660
  24    -0.0148769467626603
  25    -0.0000702505189573
  26     0.0000273331541844
  27     0.0096741366286054
  28    -0.0000010698227194
  29    -0.2009577879544163
  30    -0.0676621342178174
  31    -0.0005674748477800
  32     0.0139428530385533
  33     0.0000081267638894
  34    -0.2009233738243547
  35    -0.0676518157329955
  36    -0.0005691290229605
  37    -0.0139414281710679
  38     0.0000380701140745
  39    -0.1347324109038905
  40    -0.0426591485695237
  41     0.0039471622234869
  42    -0.0000108762646588
  43     0.0092034264344715
  44    -0.1358983173338803
  45    -0.0430555715226183
  46     0.0039024523417384
  47     0.0000106797372537
  48    -0.0092546931930728
 Ene=   -0.568463
 Spin=  Alpha
 Occup=    2.000000
   1     0.0000019402472600
   2    -0.0000038497006804
   3    -0.0000070972243840
   4    -0.0000219316687961
   5     0.4084232908460125
   6     0.0002087313238901
   7    -0.0000074704254981
   8     0.1864072499273373
   9     0.0002570799766684
  10    -0.0000002297238226
  11    -0.0000731346786285
  12     0.0001179683061560
  13     0.0000011528695071
  14     0.0062901703541007
  15    -0.0000022968081834
  16     0.0000057001723043
  17     0.0000012957383115
  18     0.0000212781047574
  19     0.1458445390469536
  20     0.0011263386933683
  21     0.0000083099076980
  22     0.0724830138543576
  23     0.0004559108905489
  24    -0.0000007296117247
  25    -0.0000222983689782
  26     0.0000060206397134
  27     0.0000004897020194
  28     0.0197018512338258
  29     0.2985912410686762
  30     0.0968020629704001
  31    -0.0145700663400272
  32    -0.0119084345927233
  33    -0.0000072044329680
  34    -0.2986134890220131
  35    -0.0968107112244719
  36     0.0145699102229124
  37    -0.0119098786626805
  38     0.0000749639386258
  39     0.0006728631212547
  40     0.0002036267143531
  41     0.0000285320019390
  42     0.0022803884000283
  43    -0.0000265735533157
  44    -0.0006861633733691
  45    -0.0002083892980620
  46    -0.0000281106390943
  47     0.0022791181280654
  48    -0.0000274565235367
 Ene=    0.000000
 Spin=  Alpha
 Occup=    1.499307
   1    -0.0003561413823914
   2     0.0007872888018765
   3     0.0009242235302490
   4     0.0005622268811827
   5    -0.0001288058630537
   6    -0.5361878715478258
   7     0.0006296219914759
   8    -0.0004498380449380
   9    -0.5877843275184050
  10    -0.0000311301996214
  11     0.0099592842630577
  12     0.0000000435315687
  13    -0.0000092274457048
  14     0.0001061470045814
  15     0.0001011388499421
  16    -0.0002510610846288
  17     0.0001949180032724
  18    -0.0002793360331379
  19    -0.0008436583050891
  20     0.0366400821637579
  21     0.0000364474437579
  22    -0.0005930099137891
  23     0.0115897163093751
  24     0.0000411960916534
  25    -0.0512753079564874
  26     0.0000000403275298
  27    -0.0000194859958694
  28    -0.0000186879900267
  29     0.0002554472505175
  30     0.0001887107691254
  31     0.0000296642896661
  32    -0.0000112288681911
  33    -0.0198602014963773
  34    -0.0008597475607141
  35    -0.0004578090004224
  36     0.0000519175862049
  37    -0.0000719455975475
  38    -0.0198598636476138
  39     0.1736592049968508
  40     0.1979771405839231
  41    -0.0033898306028308
  42    -0.0000193217515883
  43    -0.0032854693770999
  44    -0.1735763895828780
  45    -0.1978013789257284
  46     0.0033718448755229
  47    -0.0000193295930605
  48    -0.0032854192459906
 Ene=    0.000000
 Spin=  Alpha
 Occup=    0.500693
   1    -0.0000003292819938
   2     0.0000008153739914
   3    -0.0000001284522079
   4     0.0000005584128464
   5    -0.0749590892059821
   6    -0.0007518240991317
   7     0.0000021324260303
   8    -0.0708587664257213
   9    -0.0016192002498869
  10    -0.0000001870344546
  11     0.0000442950409056
  12    -0.0000551023326137
  13     0.0000000096532585
  14    -0.0440030251381158
  15     0.0000003767503979
  16    -0.0000011988834403
  17     0.0000018854648665
  18    -0.0000004735541917
  19     0.5623800654299547
  20     0.0006074395157793
  21     0.0000012449865059
  22     0.5705265928795513
  23     0.0002660947385927
  24     0.0000001753525384
  25    -0.0001628639379021
  26    -0.0000134657235041
  27    -0.0000000005827223
  28     0.0055258726869563
  29    -0.1817329329003695
  30    -0.1580630781880160
  31    -0.0004360278326942
  32     0.0038112095014583
  33    -0.0000436876998286
  34     0.1817315339571462
  35     0.1580641265074428
  36     0.0004362236460639
  37     0.0038110928494748
  38    -0.0000883577859725
  39     0.0004639148594180
  40     0.0008743871592243
  41    -0.0000253256391601
  42     0.0167537433959547
  43     0.0000111675045883
  44    -0.0004637400506668
  45    -0.0008732588351237
  46     0.0000252814262435
  47     0.0167567059239724
  48     0.0000111397780288
 Ene=    0.205925
 Spin=  Alpha
 Occup=    0.000000
   1     0.0140481031044803
   2    -0.0454573298082520
   3    -0.2152690770806552
   4    -0.0575491973853652
   5     0.0000008797663561
   6    -0.0000236953666997
   7    -0.2759100825259524
   8     0.0000033433626436
   9    -0.0002145452291811
  10     0.0103710185656755
  11    -0.0000083296688764
  12    -0.0000036327565768
  13    -0.0000646466162673
  14    -0.0000000331823874
  15     0.1122290253581509
  16    -0.1758504954190976
  17    -2.4728734540764439
  18     0.1726318838374235
  19    -0.0000002781059014
  20    -0.0002518363859926
  21     0.5981404492831227
  22    -0.0000011260918898
  23    -0.0007331790739671
  24    -0.0011864661823756
  25     0.0000029208410705
  26     0.0000043557380869
  27    -0.0032811002779735
  28     0.0000000501602275
  29    -0.0358306092424114
  30     0.3057460866439982
  31    -0.0018624785034841
  32    -0.0037064077971319
  33     0.0000055609338526
  34    -0.0358304857023060
  35     0.3057510129580841
  36    -0.0018625530157845
  37     0.0037063958679567
  38     0.0000331166128228
  39     0.0110998755881471
  40     1.6386052425777848
  41     0.0044015361487693
  42     0.0000011176645573
  43    -0.0037998672765237
  44     0.0112158353976187
  45     1.6370053051364533
  46     0.0043934407518935
  47    -0.0000011716655305
  48     0.0037955970324984
 Ene=    0.237219
 Spin=  Alpha
 Occup=    0.000000
   1     0.1151309857490870
   2    -0.1403715966931927
   3    -2.8611551819575065
   4    -0.1279799315218556
   5     0.0000038165715804
   6    -0.0004384068862775
   7    -0.4901311004789289
   8     0.0000116570921435
   9    -0.0011731789215666
  10     0.0039182568678192
  11     0.0000234676713974
  12     0.0000213679235846
  13     0.0044797202768060
  14    -0.0000001279362574
  15    -0.0246463280538132
  16    -0.0242999882335557
  17     0.9466239422497763
  18     0.0026727743691373
  19     0.0000006977328810
  20    -0.0016590884164745
  21     0.1771422655333621
  22     0.0000031254720288
  23    -0.0068526135330803
  24    -0.0041954798193506
  25    -0.0000045654532033
  26    -0.0000106138406554
  27    -0.0125039874670611
  28     0.0000002303390246
  29     0.0052903379696067
  30     1.6784896891635490
  31    -0.0059709873735410
  32    -0.0052658163695287
  33     0.0000191820224865
  34     0.0052902678178698
  35     1.6785186659829712
  36    -0.0059710896359189
  37     0.0052660474206232
  38    -0.0000030071464305
  39    -0.0460298793293301
  40    -0.2843181344188715
  41    -0.0000259732163418
  42    -0.0000197865878058
  43    -0.0026650648881576
  44    -0.0459243089875553
  45    -0.3026287480796955
  46    -0.0000965435999491
  47     0.0000196607780191
  48     0.0025846303330674
 Ene=    0.251292
 Spin=  Alpha
 Occup=    0.000000
   1     0.0005955844123661
   2    -0.0007455048071676
   3    -0.0160141139122442
   4    -0.0006087981884983
   5    -0.0008895661375524
   6    -0.0120439114666405
   7    -0.0026253752181968
   8    -0.0043013791632343
   9    -0.4559198649654008
  10     0.0000350754162278
  11    -0.0102634700571311
  12    -0.0000001367746496
  13     0.0000220838549741
  14    -0.0000002131143593
  15    -0.0000499790264175
  16    -0.0003566600049345
  17     0.0044906542705542
  18     0.0001755529221786
  19    -0.0002934352998263
  20     0.3082189686213246
  21     0.0020996530263337
  22    -0.0002746510086728
  23     1.5728823290461080
  24    -0.0000120872479335
  25    -0.0092696304987442
  26     0.0000000531001058
  27    -0.0000743215514395
  28    -0.0000421713411600
  29    -0.0001601577303084
  30     0.0145145792716347
  31    -0.0000688573287909
  32    -0.0000652584427605
  33    -0.0000375785182669
  34    -0.0000321362520747
  35     0.0042848597954472
  36     0.0000013620915658
  37     0.0000133248887087
  38    -0.0000376555556280
  39     0.0219029474607150
  40    -1.9037975199284503
  41    -0.0105697112334688
  42    -0.0000068966122031
  43     0.0086166472770443
  44    -0.0224191041910037
  45     1.9022415217774138
  46     0.0105749022444622
  47    -0.0000068117300726
  48     0.0086400130846667
 Ene=    0.278525
 Spin=  Alpha
 Occup=    0.000000
   1     0.0000005466048018
   2    -0.0000003984653470
   3    -0.0000094948470797
   4    -0.0000004224237848
   5     0.2792200594756717
   6    -0.0002360083230143
   7     0.0000027031590366
   8     1.6722636777501017
   9    -0.0032810890365669
  10    -0.0000002641883883
  11    -0.0000388917170382
  12     0.0000928890820567
  13    -0.0000002305379777
  14     0.0046010080504369
  15    -0.0000003369567104
  16     0.0000006201416506
  17     0.0000144889412876
  18    -0.0000000663987349
  19     0.0383556941018538
  20     0.0009160819048089
  21     0.0000052971429523
  22    -0.5061328572987990
  23     0.0055603539649745
  24     0.0000001221237735
  25    -0.0000526284697502
  26    -0.0000470585921985
  27    -0.0000000259258623
  28     0.0156833152772915
  29     0.0271197384884291
  30    -1.9473233671064187
  31     0.0136707968161165
  32     0.0095380117484998
  33     0.0000205157321100
  34    -0.0271184332669527
  35     1.9473290512206349
  36    -0.0136709269372613
  37     0.0095379369817830
  38    -0.0000295561273897
  39     0.0001100685187852
  40    -0.0065444362167091
  41    -0.0000464471876798
  42     0.0023580820092816
  43     0.0000317382998258
  44    -0.0001090727201742
  45     0.0065336143065134
  46     0.0000465176896969
  47     0.0024170148764376
  48     0.0000316139285187
 Ene=    0.478562
 Spin=  Alpha
 Occup=    0.000000
   1     0.0745703232299606
   2    -0.2220901293737135
   3    -5.2295568247563766
   4     0.1803250423651997
   5    -0.0000006011429328
   6     0.0000915952636928
   7     3.2809978198940057
   8     0.0000011676122757
   9    -0.0005961454076715
  10     0.0142891139994522
  11     0.0000135714887453
  12     0.0000213949639547
  13     0.0141038647815849
  14     0.0000001663830195
  15    -0.0595044972495388
  16     0.1196094399166371
  17     5.1285510144386457
  18     0.0542754728449628
  19     0.0000002577888117
  20    -0.0000123738391563
  21     3.5925809120854941
  22    -0.0000000621242351
  23    -0.0017371628950517
  24     0.0364198042470702
  25     0.0000856110635785
  26    -0.0000594151026286
  27    -0.0098232953753979
  28    -0.0000000991205671
  29    -0.0951927733393765
  30    -0.1375073960005309
  31     0.0034791130793738
  32    -0.0033011684815843
  33     0.0000232297453510
  34    -0.0951940361829232
  35    -0.1375045135371465
  36     0.0034789276744408
  37     0.0033011703288575
  38     0.0000241055027815
  39     0.2049523175590897
  40     0.1408507884448416
  41     0.0125488004136808
  42    -0.0000079910353980
  43     0.0078416148206316
  44     0.2052209575255047
  45     0.1401090904884802
  46     0.0124857384127567
  47     0.0000080793925166
  48    -0.0078623643161547
 Ene=    0.556272
 Spin=  Alpha
 Occup=    0.000000
   1     0.0651871614896861
   2    -0.6523255575321260
   3     1.1917580973384503
   4     0.3268722321955433
   5    -0.0000004336044315
   6    -0.0000112306134476
   7    -1.2744174361389886
   8    -0.0000001978822615
   9     0.0000203504916662
  10     0.0206665899324024
  11     0.0000070040066887
  12    -0.0000060698132929
  13    -0.0405667771186258
  14    -0.0000002038004703
  15     0.0980199204288361
  16    -0.7608542766471905
  17    -0.1671680969189204
  18    -0.4173291752042755
  19    -0.0000005795523522
  20    -0.0000025472372771
  21     0.4028404147433723
  22    -0.0000000187767057
  23     0.0004379491831432
  24     0.0191827902679869
  25     0.0000025485949211
  26    -0.0000047655376962
  27    -0.0360460732428008
  28    -0.0000000028442831
  29     0.1214340197759511
  30    -0.1686717394889703
  31    -0.0293058635270612
  32     0.0058518742299062
  33     0.0000009834337284
  34     0.1214357505382698
  35    -0.1686759601639826
  36    -0.0293058065312669
  37    -0.0058520122372493
  38     0.0000019203086494
  39     0.0950033332700154
  40    -0.1778566048938829
  41     0.0247885009144207
  42    -0.0000025912674220
  43     0.0038858856443363
  44     0.0950946577533089
  45    -0.1775422917461713
  46     0.0248445044761322
  47     0.0000024545597081
  48    -0.0038763469694425
 Ene=    0.650381
 Spin=  Alpha
 Occup=    0.000000
   1    -0.0131929828455665
   2     0.0151771579778165
   3     2.4875407570434502
   4    -0.1134291797679456
   5    -0.0000028875046907
   6    -0.0006752272216453
   7    -1.7113451270708546
   8     0.0000083096603491
   9     0.0009447040346748
  10    -0.0066379593527536
  11     0.0000990049084974
  12    -0.0001405170652799
  13    -0.0071734776873872
  14    -0.0000000887994426
  15    -0.0942721108061405
  16     1.0987082827413923
  17    -5.6564718926700914
  18    -0.1480804695438346
  19    -0.0000031436204592
  20     0.0001110643633906
  21    -0.6698220522303361
  22     0.0000002110043503
  23    -0.0004558588114583
  24     0.0693464156598715
  25    -0.0001404891039736
  26    -0.0002482160522374
  27     0.0509580626453439
  28     0.0000000045775003
  29     0.1227705203987757
  30     0.2181860108115385
  31     0.0197471653835917
  32     0.0144692628153630
  33    -0.0000697455656345
  34     0.1227803431694359
  35     0.2181811231614351
  36     0.0197471598030735
  37    -0.0144688462232800
  38     0.0000470413403032
  39     0.6548487480502319
  40     0.6674924061148283
  41     0.0171875921094979
  42    -0.0000372712860662
  43     0.0209463634379229
  44     0.6535745766560721
  45     0.6683805922301999
  46     0.0172593994339209
  47     0.0000369504547285
  48    -0.0209352174018390
 Ene=    0.695912
 Spin=  Alpha
 Occup=    0.000000
   1     0.0901477926935820
   2    -1.0612881058314139
   3     5.4171791210686093
   4    -0.1490520377416463
   5     0.0000002357031560
   6     0.0005739714132763
   7    -0.6477352546430402
   8     0.0000033830332992
   9     0.0016175958615604
  10     0.0809841117325889
  11    -0.0003376619944015
  12     0.0002125405546213
  13     0.0384700984226861
  14    -0.0000000609081743
  15    -0.0237861105426916
  16     0.2862497795124560
  17    -3.2088835874144981
  18    -0.1684739839152296
  19     0.0000110321611667
  20     0.0001441261570597
  21    -1.3819329367542315
  22    -0.0000145232311173
  23     0.0026980325963491
  24    -0.0014272309836113
  25     0.0005195026768243
  26     0.0001300508597462
  27     0.0100041730782160
  28    -0.0000003978143964
  29    -0.6839366927103243
  30    -0.5674453491720239
  31     0.0232638012827385
  32    -0.0283802943383620
  33     0.0001797593213281
  34    -0.6839488159578325
  35    -0.5674338733967725
  36     0.0232627781023859
  37     0.0283795384525394
  38     0.0001155536716356
  39    -0.0275034130454309
  40     0.0599844261372029
  41     0.0265979576755603
  42     0.0000731596944529
  43    -0.0208224393297720
  44    -0.0227955095352504
  45     0.0579488431037563
  46     0.0260659278777429
  47    -0.0000721684689117
  48     0.0207540724670834
 Ene=    0.721344
 Spin=  Alpha
 Occup=    0.000000
   1    -0.0000005504045983
   2    -0.0000044493674754
   3     0.0000466252615105
   4     0.0000011086788580
   5     0.0070374812232197
   6    -0.0024986910753862
   7    -0.0000012561876288
   8    -0.2838744044818058
   9     0.0023044637889449
  10     0.0000009191674984
  11     0.0001093598435011
  12     0.0000419104529031
  13     0.0000006446351645
  14     0.0766162152137687
  15     0.0000000533555103
  16    -0.0000005326225619
  17    -0.0000160928450599
  18    -0.0000028227112083
  19    -0.9868936279315901
  20    -0.0011358832775796
  21    -0.0000107307876758
  22     1.2781374758139501
  23     0.0009887735379082
  24    -0.0000001665709951
  25    -0.0001728137185994
  26     0.0000105120680679
  27    -0.0000001536292881
  28    -0.0289546988821227
  29     0.1404949705024300
  30    -0.3312196970194254
  31    -0.0150089563429538
  32     0.0169382577212586
  33    -0.0000363760970008
  34    -0.1405172140644299
  35     0.3312061267195177
  36     0.0150102009039043
  37     0.0169385033927269
  38    -0.0001263762580907
  39     0.0000741075557894
  40    -0.0004745732780437
  41     0.0000974091728067
  42    -0.0287687369135591
  43    -0.0000143543554437
  44    -0.0000792673606072
  45     0.0004726358991677
  46    -0.0000969156747551
  47    -0.0287499405632867
  48    -0.0000134344839398
 Ene=    0.775916
 Spin=  Alpha
 Occup=    0.000000
   1     0.0003605400434682
   2    -0.0007383108448059
   3    -0.0045650188890407
   4    -0.0006764981606488
   5     0.0011500105842060
   6     0.9584973970372930
   7    -0.0003672199797345
   8    -0.0045003473030198
   9    -1.3116190375249337
  10    -0.0001869243493749
  11    -0.0475063923249401
  12     0.0000004738908326
  13    -0.0001244021884558
  14     0.0003743593642724
  15    -0.0000275374838041
  16     0.0004611929191796
  17     0.0005137902639226
  18     0.0005985027609768
  19    -0.0021849778358930
  20     0.0421494321495045
  21     0.0007796075141130
  22     0.0041534417424466
  23     0.4396283962885228
  24    -0.0000040667205933
  25     0.1087254186763669
  26    -0.0000003589581478
  27     0.0000778151360444
  28    -0.0001903181216190
  29     0.0037748871472631
  30     0.0006201663738322
  31    -0.0001264447235985
  32     0.0001396350845483
  33     0.0224132517548687
  34     0.0003615132132360
  35     0.0017173411979899
  36    -0.0003472801814229
  37     0.0000218901874867
  38     0.0224111624656706
  39    -0.2509555299590615
  40     0.2985286273011095
  41    -0.0044762091256859
  42     0.0000126346632048
  43    -0.0223392618480551
  44     0.2522414272892619
  45    -0.2985063929015563
  46     0.0043704129611828
  47     0.0000131064973437
  48    -0.0225453866215714
 Ene=    0.823370
 Spin=  Alpha
 Occup=    0.000000
   1    -0.0011676982435345
   2     0.0075358661212190
   3    -0.0231172819404989
   4     0.0009835110706836
   5     0.0030148355945097
   6    -0.3513840836677035
   7     0.0000665392717858
   8    -0.0506707511907883
   9    -0.4574981101275558
  10     0.0000468795637315