[Molden Format]
[Atoms] Angs
 c       1                    6  7.010178302740e-01  2.563878645177e-19 -1.037815415489e-03
 c       2                    6 -6.708937890555e-01 -4.378136548013e-17  5.415570676618e-05
 h       3                    1  1.256864144201e+00 -9.459924958745e-01  3.169221641003e-02
 h       4                    1  1.256824589120e+00  9.459949536433e-01 -3.422509850695e-02
 h       5                    1 -1.347759465112e+00 -3.186982255864e-02 -9.073045748222e-01
 h       6                    1 -1.346673515520e+00  3.186736478986e-02  9.083514151715e-01
[GTO]
1
 s           5
      1.238401693800e+03      5.517365048110e-03
      1.862900499200e+02      4.108882855595e-02
      4.225117634600e+01      1.822538212649e-01
      1.167655793200e+01      4.682845943743e-01
      3.593050648200e+00      4.457581733600e-01
 s           1
      4.024514736300e-01      1.000000000000e+00
 s           1
      1.309018266800e-01      1.000000000000e+00
 p           3
      9.468097062100e+00      5.688833201104e-02
      2.010354514200e+00      3.129405933647e-01
      5.477100470700e-01      7.606501650914e-01
 p           1
      1.526861379500e-01      1.000000000000e+00
 d           1
      8.000000000000e-01      1.000000000000e+00

2
 s           5
      1.238401693800e+03      5.517365048110e-03
      1.862900499200e+02      4.108882855595e-02
      4.225117634600e+01      1.822538212649e-01
      1.167655793200e+01      4.682845943743e-01
      3.593050648200e+00      4.457581733600e-01
 s           1
      4.024514736300e-01      1.000000000000e+00
 s           1
      1.309018266800e-01      1.000000000000e+00
 p           3
      9.468097062100e+00      5.688833201104e-02
      2.010354514200e+00      3.129405933647e-01
      5.477100470700e-01      7.606501650914e-01
 p           1
      1.526861379500e-01      1.000000000000e+00
 d           1
      8.000000000000e-01      1.000000000000e+00

3
 s           3
      1.301070100000e+01      3.348548481299e-02
      1.962257200000e+00      2.347218708812e-01
      4.445379600000e-01      8.137702852596e-01
 s           1
      1.219496200000e-01      1.000000000000e+00
 p           1
      8.000000000000e-01      1.000000000000e+00

4
 s           3
      1.301070100000e+01      3.348548481299e-02
      1.962257200000e+00      2.347218708812e-01
      4.445379600000e-01      8.137702852596e-01
 s           1
      1.219496200000e-01      1.000000000000e+00
 p           1
      8.000000000000e-01      1.000000000000e+00

5
 s           3
      1.301070100000e+01      3.348548481299e-02
      1.962257200000e+00      2.347218708812e-01
      4.445379600000e-01      8.137702852596e-01
 s           1
      1.219496200000e-01      1.000000000000e+00
 p           1
      8.000000000000e-01      1.000000000000e+00

6
 s           3
      1.301070100000e+01      3.348548481299e-02
      1.962257200000e+00      2.347218708812e-01
      4.445379600000e-01      8.137702852596e-01
 s           1
      1.219496200000e-01      1.000000000000e+00
 p           1
      8.000000000000e-01      1.000000000000e+00


[5D]
[7F]
[9G]
[MO]
 Ene=  -11.316458
 Spin=  Alpha
 Occup=    2.000000
   1    -0.0047379157783751
   2     0.0021652266192136
   3    -0.0053784350256785
   4    -0.0014736912380697
   5     0.0000000037925122
   6     0.0000011826590299
   7     0.0022355317001495
   8    -0.0000000606760304
   9    -0.0000017425725629
  10    -0.0004645053335780
  11    -0.0000007998738517
  12    -0.0000160620778199
  13     0.0003421807672596
  14    -0.0000000053602467
  15    -0.9910535496813739
  16    -0.0344487220813647
  17     0.0222657195240861
  18     0.0006993714831257
  19     0.0000000191179923
  20    -0.0000001301081848
  21     0.0006619113153969
  22    -0.0000000178224519
  23    -0.0000014451965818
  24    -0.0004246228229518
  25     0.0000009859214336
  26    -0.0000883135016160
  27    -0.0017766585067165
  28    -0.0000000592227531
  29    -0.0002114648936892
  30    -0.0005847533299155
  31     0.0004511502303260
  32    -0.0002123043395693
  33     0.0000070874119203
  34    -0.0002114473231070
  35    -0.0005846724325918
  36     0.0004511291128056
  37     0.0002123037261322
  38    -0.0000077101297080
  39     0.0020981437835792
  40    -0.0045926507013806
  41     0.0006994046297393
  42     0.0000481699394593
  43     0.0013717431406926
  44     0.0020981339744989
  45    -0.0045912415584036
  46     0.0006979530774894
  47    -0.0000481838056483
  48    -0.0013730749025113
 Ene=  -11.187315
 Spin=  Alpha
 Occup=    2.000000
   1     0.9907380202547876
   2     0.0358055606223033
   3    -0.0235804280713855
   4    -0.0001569396111385
   5     0.0000000306477534
   6     0.0000011892852776
   7     0.0010537468170906
   8    -0.0000000534674138
   9    -0.0000023511518517
  10    -0.0014934053171706
  11    -0.0000016515169026
  12    -0.0000880088111252
  13     0.0000635963219298
  14    -0.0000000278442865
  15    -0.0044990055267940
  16    -0.0024348523349691
  17     0.0064423693742703
  18    -0.0015599322888504
  19     0.0000000074463300
  20     0.0000013721243770
  21     0.0019750841294457
  22     0.0000000688147613
  23     0.0000001298688849
  24     0.0002985877373814
  25     0.0000008569693836
  26    -0.0000047991325452
  27    -0.0006513660407500
  28     0.0000000014218833
  29    -0.0023166122751285
  30     0.0051147282772962
  31     0.0006338807797260
  32    -0.0012292793398331
  33     0.0000427373393758
  34    -0.0023166460694804
  35     0.0051147772860699
  36     0.0006338166461547
  37     0.0012292926968652
  38    -0.0000429175431331
  39     0.0000512041170559
  40     0.0001687960963194
  41     0.0003722514224294
  42     0.0000041367306004
  43     0.0001176474511190
  44     0.0000504752670337
  45     0.0001666695586440
  46     0.0003715813528044
  47    -0.0000041303824787
  48    -0.0001180333863477
 Ene=   -1.010586
 Spin=  Alpha
 Occup=    2.000000
   1    -0.1804958928558107
   2     0.3387411050018461
   3     0.1115133136709016
   4    -0.1216910245233212
   5     0.0000003360596243
   6     0.0001090201115625
   7    -0.0262402739172637
   8    -0.0000000823144473
   9     0.0000228446332089
  10    -0.0107835373217432
  11    -0.0000255455468124
  12    -0.0001783237444887
  13     0.0135757388717562
  14    -0.0000001110933747
  15    -0.2164853438582979
  16     0.4411263712598310
  17     0.1246589414987658
  18     0.1102739218867506
  19    -0.0000004157226855
  20    -0.0001026054132083
  21     0.0181889920135677
  22     0.0000003717645446
  23    -0.0000055690655049
  24    -0.0064401783549125
  25    -0.0000217139106461
  26     0.0002227974631345
  27     0.0174836667045784
  28     0.0000002100647707
  29     0.0913641158788000
  30     0.0097809160890636
  31    -0.0083752150193963
  32     0.0110513673091481
  33    -0.0003800355561598
  34     0.0913640419836866
  35     0.0097809816887029
  36    -0.0083747565104277
  37    -0.0110513693728071
  38     0.0003899047141745
  39     0.1140115392994299
  40     0.0134134022673927
  41     0.0094329706355508
  42     0.0004320108312668
  43     0.0123028825499547
  44     0.1139694187302950
  45     0.0134013226251992
  46     0.0094130438358713
  47    -0.0004317898392318
  48    -0.0123106749640652
 Ene=   -0.787261
 Spin=  Alpha
 Occup=    2.000000
   1    -0.1637907493840940
   2     0.3171986234889629
   3     0.1473147107951727
   4     0.0720019210448354
   5     0.0000018687854064
   6    -0.0000163745148216
   7     0.0235373332228578
   8     0.0000004137728247
   9    -0.0000034251578844
  10    -0.0053998829862128
  11    -0.0000020117519392
  12    -0.0005541557451688
  13    -0.0065253016581647
  14    -0.0000002833604787
  15     0.1320005641939844
  16    -0.2763793070955788
  17    -0.1348182037647869
  18     0.2437154928065817
  19     0.0000018458200340
  20    -0.0001375653811226
  21     0.0846442865564839
  22     0.0000003056568366
  23    -0.0000599911596463
  24    -0.0126054726264949
  25    -0.0000189643342356
  26    -0.0006816805928022
  27     0.0024441755363501
  28    -0.0000005259129461
  29     0.1658012815328589
  30     0.0336228955032796
  31    -0.0074943646132448
  32     0.0153793740423925
  33    -0.0005323001893584
  34     0.1658032823511734
  35     0.0336232459053829
  36    -0.0074938392534399
  37    -0.0153795532830799
  38     0.0005396320525117
  39    -0.2046454692691256
  40    -0.0390594985037266
  41    -0.0079649194512214
  42    -0.0006140524903212
  43    -0.0174910431484876
  44    -0.2046043150517421
  45    -0.0390524073138996
  46    -0.0079422400496987
  47     0.0006139306295731
  48     0.0174990704120766
 Ene=   -0.594218
 Spin=  Alpha
 Occup=    2.000000
   1     0.0000188129375430
   2    -0.0000274039086367
   3    -0.0000972963102869
   4    -0.0004822168613393
   5    -0.0039957195944897
   6    -0.1098654964949399
   7    -0.0001517900653913
   8    -0.0012926220236293
   9    -0.0351112777859004
  10    -0.0000226571470862
  11     0.0143162563525392
  12     0.0000002764398168
  13     0.0000356354717849
  14     0.0004990293713163
  15    -0.0000259956419127
  16     0.0000702232662298
  17    -0.0000162260380318
  18     0.0000950079999528
  19    -0.0155192295322500
  20    -0.4407370193252771
  21     0.0000277788752853
  22    -0.0069069356334531
  23    -0.1959593749088651
  24    -0.0000293162299195
  25     0.0183363497666192
  26    -0.0000006218625629
  27     0.0000186278779989
  28     0.0006380944172748
  29    -0.0000911718245270
  30    -0.0000308345950380
  31    -0.0000063806244557
  32    -0.0001134824604351
  33    -0.0029610885548938
  34    -0.0003211983844214
  35    -0.0000991468222505
  36     0.0000050276533335
  37    -0.0000828689188249
  38    -0.0029621774367877
  39     0.3056199800005652
  40     0.1091774919380881
  41     0.0143002042426059
  42     0.0004274273782385
  43     0.0121885984763546
  44    -0.3059160932853607
  45    -0.1092836575954626
  46    -0.0142881350321197
  47     0.0004281329273347
  48     0.0122296852688094
 Ene=   -0.586116
 Spin=  Alpha
 Occup=    2.000000
   1    -0.0263623791677400
   2     0.0427273743794563
   3     0.1080004930898538
   4     0.3937897818601829
   5     0.0000120644546146
   6    -0.0003900336518881
   7     0.1248150685193342
   8     0.0000055444292303
   9    -0.0001187660579247
  10     0.0019135508316987
  11     0.0000431466396429
  12    -0.0006881187786318
  13    -0.0230579771002621
  14     0.0000007795321674
  15     0.0447491277008478
  16    -0.1141166538072868
  17    -0.0330702785298800
  18    -0.3909925058148442
  19    -0.0000135781581236
  20    -0.0001873426587258
  21    -0.1609418278539467
  22    -0.0000059901275085
  23    -0.0000967441982978
  24     0.0115902961069947
  25     0.0000434130574937
  26     0.0004232720051823
  27    -0.0080487349186542
  28     0.0000016588755901
  29     0.2011705007092225
  30     0.0662018941795120
  31    -0.0008121418316442
  32     0.0145299504005329
  33    -0.0005109631869224
  34     0.2011953871903150
  35     0.0662094452521761
  36    -0.0008127700864686
  37    -0.0145313301228911
  38     0.0005016659687356
  39     0.1360145888621360
  40     0.0422796126547144
  41    -0.0002005340620309
  42     0.0003521124958296
  43     0.0100309491882968
  44     0.1353773079288595
  45     0.0420498669851396
  46    -0.0002387232030769
  47    -0.0003512100054214
  48    -0.0100067353408504
 Ene=   -0.559564
 Spin=  Alpha
 Occup=    2.000000
   1    -0.0000007105523032
   2     0.0000012100052835
   3     0.0000034591011224
   4     0.0000252513194966
   5    -0.4092115904446821
   6     0.0143396809276027
   7     0.0000103018192827
   8    -0.1928645620134505
   9     0.0067688396874173
  10     0.0000003143503532
  11     0.0002801607133729
  12    -0.0000043525365949
  13    -0.0000006468941935
  14    -0.0082783312608877
  15     0.0000021680296490
  16    -0.0000056213322335
  17    -0.0000012041834386
  18    -0.0000112036854464
  19    -0.1295988753998275
  20     0.0047201762406092
  21    -0.0000041237343596
  22    -0.0656601252849845
  23     0.0023831761868024
  24    -0.0000004248551515
  25     0.0006094396361818
  26     0.0000133809238770
  27     0.0000001603040564
  28    -0.0176164492832667
  29     0.3015837380903797
  30     0.1021959554927115
  31    -0.0141565858539358
  32     0.0121498156053119
  33    -0.0004140223444860
  34    -0.3015667359586631
  35    -0.1021891124204393
  36     0.0141559989570956
  37     0.0121487553097948
  38    -0.0004277566518925
  39    -0.0001171418354720
  40    -0.0000427647145368
  41    -0.0000058862989365
  42    -0.0017831623796073
  43     0.0000582822700780
  44     0.0001266078297992
  45     0.0000458818600455
  46     0.0000058707082822
  47    -0.0017828153748736
  48     0.0000575445639762
 Ene=    0.000000
 Spin=  Alpha
 Occup=    1.499629
   1    -0.0000420147034420
   2     0.0000945283541777
   3     0.0001125232874886
   4    -0.0003831411370778
   5    -0.0185607280088044
   6    -0.5314730448672689
   7    -0.0003920307858015
   8    -0.0197020810310178
   9    -0.5649273049970317
  10    -0.0000175087425976
  11     0.0112049273566461
  12    -0.0000004373371028
  13     0.0000075935307988
  14     0.0003831279699788
  15     0.0000164575760535
  16    -0.0000371802186955
  17    -0.0000238832555937
  18     0.0000077796839308
  19     0.0007619064789030
  20     0.0197157669636141
  21     0.0000138955860521
  22    -0.0003933378723068
  23    -0.0126043458984667
  24     0.0000624633269367
  25    -0.0495208700862199
  26     0.0000011874483569
  27    -0.0000354828749676
  28    -0.0017300192028214
  29     0.0000139215708646
  30     0.0000020908052320
  31    -0.0000129611503010
  32    -0.0006677761179727
  33    -0.0191269007968568
  34    -0.0000776639942878
  35    -0.0000475082147730
  36    -0.0000107118102662
  37    -0.0006618269192892
  38    -0.0191271878511515
  39    -0.1726627226538920
  40    -0.2058674586460942
  41    -0.0001249344228996
  42    -0.0000901754298545
  43    -0.0026165089086982
  44     0.1726702321997349
  45     0.2059153044378488
  46     0.0001247089200270
  47    -0.0000901687346189
  48    -0.0026155535478215
 Ene=    0.000000
 Spin=  Alpha
 Occup=    0.500371
   1    -0.0000000574350431
   2     0.0000000938085296
   3     0.0000009094740451
   4     0.0000022191223169
   5    -0.0691866422275325
   6     0.0024828965747278
   7     0.0000023748263848
   8    -0.0652355334682252
   9     0.0024176117553558
  10    -0.0000016340328652
  11     0.0014424323964435
  12     0.0000271502607528
  13     0.0000010513477127
  14    -0.0413758014127001
  15     0.0000006101545100
  16    -0.0000015627581016
  17    -0.0000016511447018
  18    -0.0000166545299627
  19     0.5661744085194875
  20    -0.0198545523695422
  21    -0.0000162402952855
  22     0.5678302958471311
  23    -0.0198755390686173
  24     0.0000004485292464
  25    -0.0001541998922731
  26    -0.0000070890789436
  27     0.0000000492018585
  28     0.0048268324966166
  29     0.1657798359007774
  30     0.1401580987698410
  31     0.0003020347957621
  32     0.0036280715555670
  33    -0.0001236752289989
  34    -0.1657782694990282
  35    -0.1401561865034359
  36    -0.0003020721942249
  37     0.0036279002783091
  38    -0.0001190267308755
  39     0.0000449271537358
  40     0.0000877700613202
  41    -0.0000012978042678
  42     0.0155140619458267
  43    -0.0005436835496401
  44    -0.0000440747722562
  45    -0.0000867794495573
  46     0.0000004265362560
  47     0.0155125429960099
  48    -0.0005436930674826
 Ene=    0.195778
 Spin=  Alpha
 Occup=    0.000000
   1     0.0121793278030494
   2     0.0070091949449625
   3    -0.0773942997965965
   4     0.0547641070085593
   5    -0.0000016987959112
   6    -0.0000807672924433
   7     0.1441506254336629
   8    -0.0000070361252135
   9    -0.0002214105714098
  10    -0.0073752628775200
  11    -0.0000125255896187
  12    -0.0004278163297880
  13     0.0005693238804015
  14    -0.0000004258476009
  15    -0.1183790980168949
  16     0.1845615094511628
  17     2.2702432576061562
  18    -0.1751882688601251
  19     0.0000020184039796
  20     0.0001820672509133
  21    -0.7123451765473551
  22     0.0000031564230532
  23     0.0005757963694254
  24     0.0016778387001859
  25     0.0000006970669137
  26     0.0001170818584562
  27     0.0004178579897706
  28     0.0000000122504464
  29     0.0306049841925336
  30    -0.0461479408293298
  31     0.0017039968843802
  32    -0.0019124010567212
  33     0.0000642450076721
  34     0.0306050500743888
  35    -0.0461435701375983
  36     0.0017038729143665
  37     0.0019121743629334
  38    -0.0000718714516597
  39    -0.0246068313029752
  40    -1.5691868539237903
  41    -0.0012365643022537
  42    -0.0001974083089372
  43    -0.0056241572251394
  44    -0.0245983393065089
  45    -1.5693912323990138
  46    -0.0012286132054654
  47     0.0001974235643430
  48     0.0056258083254702
 Ene=    0.231760
 Spin=  Alpha
 Occup=    0.000000
   1    -0.1219523840216175
   2     0.1655293897904562
   3     2.7394305920350495
   4     0.1249687023519433
   5    -0.0000014475634427
   6    -0.0000397342142224
   7     0.5059274219276821
   8    -0.0000034540540551
   9    -0.0000777219994229
  10    -0.0058373587125562
  11    -0.0000027467163507
  12    -0.0004666795170930
  13    -0.0032746945351371
  14    -0.0000001431516323
  15     0.0085031506050966
  16     0.0483928381863024
  17    -0.4873099212965240
  18    -0.0367235966732911
  19     0.0000003474368511
  20     0.0000460731354520
  21    -0.2829291524867796
  22     0.0000002758829386
  23     0.0001676029851001
  24     0.0029037237506100
  25    -0.0000010688697867
  26     0.0006297193068846
  27     0.0129896780007291
  28     0.0000005267360492
  29    -0.0055063772848456
  30    -1.6538851115880309
  31     0.0055413449963828
  32    -0.0056122491267998
  33     0.0001909263993942
  34    -0.0055058157823123
  35    -1.6538702773677953
  36     0.0055410822772414
  37     0.0056120990983636
  38    -0.0001999542452343
  39     0.0439020223678671
  40    -0.0010021754403066
  41    -0.0014111195881284
  42    -0.0000447614318590
  43    -0.0013313312598506
  44     0.0439022556234292
  45    -0.0010628105873479
  46    -0.0014054073354396
  47     0.0000447159717265
  48     0.0013304326667301
 Ene=    0.254123
 Spin=  Alpha
 Occup=    0.000000
   1     0.0000109197107198
   2    -0.0000381907123856
   3     0.0001601439582951
   4    -0.0000053337750243
   5    -0.0014040702354404
   6    -0.0431605584148009
   7    -0.0004767330064847
   8    -0.0162335145815858
   9    -0.4781804616191011
  10     0.0000240798917671
  11    -0.0143124137523155
  12     0.0000006533594109
  13    -0.0000109139053602
  14    -0.0005011096039440
  15     0.0000078986166570
  16    -0.0000087237104106
  17    -0.0006022876442126
  18     0.0002513326730683
  19     0.0120537296830669
  20     0.3438275425561066
  21     0.0009822249366647
  22     0.0491385522105226
  23     1.4052991608663734
  24     0.0000074621516421
  25    -0.0085881182023318
  26    -0.0000002294004294
  27    -0.0000121878033739
  28    -0.0002946125552890
  29    -0.0000326180498460
  30     0.0006392264479007
  31    -0.0000041231360779
  32    -0.0000615176822196
  33    -0.0019142707747409
  34    -0.0000279563285605
  35    -0.0005088701475345
  36     0.0000019332154688
  37    -0.0000661015868306
  38    -0.0019141661272443
  39    -0.0154194127119189
  40     1.7433385278414399
  41     0.0081573223208212
  42     0.0002257809749676
  43     0.0064590415396382
  44     0.0153748724565318
  45    -1.7427308750447386
  46    -0.0081376654415999
  47     0.0002256325537284
  48     0.0064676792977936
 Ene=    0.278317
 Spin=  Alpha
 Occup=    0.000000
   1    -0.0000009817801379
   2     0.0000024273983151
   3     0.0000155314615072
   4    -0.0000060328677078
   5     0.2864931625915663
   6    -0.0099793728628447
   7    -0.0000224877317514
   8     1.6121181808863434
   9    -0.0560103884638675
  10    -0.0000002225879274
  11    -0.0001813794369217
  12     0.0000036925372887
  13    -0.0000005140120725
  14     0.0053517401814941
  15     0.0000003226617486
  16    -0.0000009836851321
  17     0.0000168105353335
  18    -0.0000021895927694
  19     0.0319720151998332
  20    -0.0012322991555221
  21     0.0000162830059867
  22    -0.4627948057417652
  23     0.0156293461712449
  24     0.0000008814737147
  25    -0.0005543445036829
  26    -0.0000156351781651
  27    -0.0000003398041508
  28     0.0160233936117857
  29    -0.0244550737765420
  30     1.8965810495807784
  31    -0.0129557239829397
  32     0.0096680096783196
  33    -0.0003289076763818
  34     0.0244564210125004
  35    -1.8966156456717462
  36     0.0129550180349801
  37     0.0096683868350645
  38    -0.0003448071481535
  39     0.0000115323987854
  40    -0.0006733724202703
  41    -0.0000051796031202
  42     0.0009282543260723
  43    -0.0000350433486016
  44    -0.0000122942915432
  45     0.0006674464367415
  46     0.0000049334238420
  47     0.0009207046202991
  48    -0.0000348371652375
 Ene=    0.467774
 Spin=  Alpha
 Occup=    0.000000
   1    -0.0779799509617270
   2     0.1710346942246012
   3     4.5484588920821087
   4    -0.2034441401549323
   5     0.0000016673929514
   6     0.0001739586761774
   7    -3.2526877307532351
   8     0.0000023072331495
   9     0.0025945763262267
  10    -0.0103718337047145
  11     0.0000033384686355
  12    -0.0012161388046928
  13    -0.0168629153607214
  14    -0.0000010914901937
  15     0.0712404752417667
  16    -0.0898723267361850
  17    -4.6197006747479428
  18    -0.1193774704564601
  19    -0.0000014280497183
  20     0.0000776750707921
  21    -3.3224952197125108
  22    -0.0000047323742161
  23     0.0025689043853250
  24    -0.0218133883417206
  25    -0.0000608044161675
  26    -0.0006559543602333
  27     0.0190845881916763
  28    -0.0000008278512911
  29     0.0963242401364581
  30     0.2340626725662297
  31    -0.0055239328127128
  32    -0.0039290969936278
  33     0.0001430176461775
  34     0.0963173258571436
  35     0.2340808409715405
  36    -0.0055246522000269
  37     0.0039294079956873
  38    -0.0001316741897338
  39    -0.0524954983343604
  40    -0.2780681243224576
  41    -0.0182796196534545
  42     0.0001350582374906
  43     0.0038749155809872
  44    -0.0522144584812663
  45    -0.2786004663357159
  46    -0.0183196350930890
  47    -0.0001356012056908
  48    -0.0038541775111672
 Ene=    0.563949
 Spin=  Alpha
 Occup=    0.000000
   1     0.0751440818900904
   2    -0.6907632623762293
   3     0.6437553285093114
   4     0.3519021873032397
   5    -0.0000048908083201
   6    -0.0003222533180660
   7    -0.6599932393010882
   8     0.0000040511862226
   9     0.0004295039571105
  10     0.0316822579189579
  11     0.0000699698192938
  12     0.0003922103507129
  13    -0.0435899419892351
  14    -0.0000005128916251
  15     0.1213478209394776
  16    -0.9949944731715973
  17     1.0936694519777628
  18    -0.3864641658809218
  19    -0.0000049886731627
  20     0.0002302463502170
  21     0.5771936565406462
  22     0.0000051782272639
  23    -0.0002323876704517
  24     0.0152496613711368
  25     0.0000795330035065
  26    -0.0009474320265028
  27    -0.0533565410999600
  28    -0.0000000979047825
  29     0.0524051475118249
  30    -0.2548931330143152
  31    -0.0356856913970495
  32    -0.0023708001003427
  33     0.0001061156473781
  34     0.0523932974126245
  35    -0.2548766795826885
  36    -0.0356867199383148
  37     0.0023705361279333
  38    -0.0000606704069988
  39    -0.0665895949609290
  40    -0.2024898069363686
  41     0.0341091120976610
  42    -0.0002380054800811
  43    -0.0068159932749543
  44    -0.0669847011449255
  45    -0.2020338059262630
  46     0.0341388118793269
  47     0.0002383062200857
  48     0.0067804265103185
 Ene=    0.685508
 Spin=  Alpha
 Occup=    0.000000
   1    -0.0352419854145144
   2     0.4708066052629706
   3    -2.4301630883523875
   4     0.1202884382006194
   5     0.0000093589190338
   6     0.0001313488935868
   7    -0.4328777202461613
   8    -0.0000099525295277
   9     0.0001577276841855
  10    -0.0498852787991699
  11     0.0000177457149489
  12    -0.0045229704817990
  13    -0.0434761729485936
  14    -0.0000015590702560
  15    -0.0522811595625147
  16     0.5044118539788243
  17    -1.0927249625348978
  18    -0.1222606362481342
  19     0.0000106305767944
  20     0.0000815669669661
  21     1.3982318779607834
  22    -0.0000213395869202
  23    -0.0013895897949883
  24     0.0539982743018887
  25    -0.0000303473477904
  26     0.0039886089868318
  27     0.0196673424815137
  28    -0.0000003327848634
  29     0.5629843141769920
  30     0.4054678590082578
  31    -0.0146708713676060
  32    -0.0308297569991586
  33     0.0011008687094933
  34     0.5629857415348176
  35     0.4054867784458413
  36    -0.0146715909893888
  37     0.0308309774823033
  38    -0.0010425853766394
  39     0.5329907441823014
  40     0.5064351714391153
  41     0.0292915256248326
  42    -0.0008465233520856
  43    -0.0240867532523632
  44     0.5340064962318365
  45     0.5058101850845935
  46     0.0292689211270766
  47     0.0008474382117103
  48     0.0240370151218830
 Ene=    0.710080
 Spin=  Alpha
 Occup=    0.000000
   1    -0.0629969683613722
   2     0.8506979959065692
   3    -3.6712650576346628
   4     0.1692967169709823
   5    -0.0000040305431402
   6    -0.0001467686550855
   7     0.6564824295519133
   8     0.0000064564032596
   9    -0.0002950141771586
  10    -0.0698991344064187
  11    -0.0000495171773611
  12    -0.0047477276959620
  13    -0.0148443660153654
  14    -0.0000026659305232
  15     0.0435045271196373
  16    -0.6895354289393419
  17     3.8757953341907294
  18     0.3025486382667831
  19     0.0000425077830718
  20    -0.0000880077781897
  21     0.1712118758577192
  22    -0.0000729595711262
  23    -0.0011728568415435
  24    -0.0612974869689082
  25    -0.0000986566218495
  26    -0.0053949321236600
  27    -0.0475578733134782
  28    -0.0000066159166365
  29     0.4657048243414925
  30     0.2708081840371598
  31    -0.0158100026900746
  32    -0.0073038705816483
  33     0.0002639687935974
  34     0.4657134470731334
  35     0.2708316062951893
  36    -0.0158054543769828
  37     0.0073038895922289
  38    -0.0002493107277118
  39    -0.5038774897533053
  40    -0.4224446999162844
  41    -0.0355931539354287
  42     0.0000752807083374
  43     0.0021825402702579
  44    -0.5030715219910430
  45    -0.4222244122275480
  46    -0.0356254239405840
  47    -0.0000727404309000
  48    -0.0021448340981515
 Ene=    0.720310
 Spin=  Alpha
 Occup=    0.000000
   1     0.0000024263105922
   2    -0.0000350609770766
   3     0.0001537367951892
   4    -0.0000074361880648
   5    -0.0202160133278694
   6     0.0003351696494358
   7    -0.0000207969711196
   8     0.1946285258342644
   9    -0.0067355207913969
  10     0.0000007876210846
  11     0.0019214512527271
  12     0.0000436009864335
  13     0.0000024569678609
  14    -0.0553506104678644
  15    -0.0000002306467706
  16     0.0000144722215740
  17    -0.0001147663689397
  18    -0.0000378665433301
  19     1.0144159243304034
  20    -0.0355920415670861
  21     0.0000162837275557
  22    -1.2137007407308282
  23     0.0430307755824713
  24     0.0000027577754318
  25    -0.0007299957881647
  26    -0.0000175008665871
  27     0.0000011656701705
  28     0.0218759330811644
  29     0.0534126929683202
  30    -0.2574412095340275
  31    -0.0255205662689897
  32    -0.0115998565404694
  33     0.0003996540845225
  34    -0.0534582408443752
  35     0.2574079368068810
  36     0.0255221447749939
  37    -0.0116017708343620
  38     0.0003588993806397
  39     0.0003423765546787
  40    -0.0000281675120603
  41    -0.0000341717463962
  42     0.0218794597677610
  43    -0.0007644505236179
  44    -0.0003160810864379
  45     0.0000440879203756
  46     0.0000348664461602
  47     0.0218535252800280
  48    -0.0007637897533008
 Ene=    0.725741
 Spin=  Alpha
 Occup=    0.000000
   1     0.0001129261970982
   2    -0.0010297914592375
   3     0.0018288318905648
   4     0.0001895694629201
   5     0.0133181460489979
   6     0.3803543913869988
   7     0.0011825313103084
   8     0.0081328748239856
   9     0.2559542672934197
  10    -0.0000125569267072
  11     0.0658534711073423
  12     0.0000036195050056
  13     0.0000738314553920
  14     0.0023515482158757
  15     0.0000815195756625
  16    -0.0005842000963193
  17     0.0017019627437781
  18    -0.0000478834728099
  19    -0.0001557508716518
  20    -0.0204482593256115
  21    -0.0007305149227075
  22    -0.0414384968852476
  23    -1.1750272194967080
  24     0.0001512910379433
  25    -0.1225945206792293
  26     0.0000030059696867
  27    -0.0000888139704447
  28    -0.0043488841688623
  29    -0.0010221641761958
  30    -0.0007564691488583
  31    -0.0000014851478465
  32     0.0017815092323513
  33     0.0505070385278837
  34    -0.0000523221314408
  35    -0.0004337671884086
  36     0.0001063383076980
  37     0.0017158703856060
  38     0.0505105805817597
  39    -0.8249299725580889
  40     0.1440559082174081
  41     0.0682160524128256
  42    -0.0001575914659736
  43    -0.0057577512348362
  44     0.8249622118760644
  45    -0.1450933305310612
  46    -0.0681813331520004
  47    -0.0001569110725691
  48    -0.0056385738757553
 Ene=    0.779591
 Spin=  Alpha
 Occup=    0.000000
   1     0.0000567536635496
   2    -0.0002028443177565
   3     0.0006419742800835
   4     0.0007126187273214
   5     0.0330551847902866
   6     0.9498243914951059
   7    -0.0013801876546245
   8    -0.0427071174440364
   9    -1.2441847872807903
  10     0.0000438063017922