
 Primary working directories:    /u/s/ben/molpro
 Secondary working directories:  /u/s/ben/molpro

 CPU=Opteron 1809.306:1809.306 MHz
 mxmblk= 64  mxmbln= 64  ncache= 16384  mindgm= 15  mindgv= 24  mindgc= 16  mindgl=  5  mindgr=  1  noblas=0  nroll=2  minvec=7
 default implementation of scratch files=df  

 ***,SA-2-CAS(2/2)
                                                           ! One step of S0/S1 conical intersection search in Cartesian coordinates
 memory,50,m
 FILE,2,uio.wfn
 punch,all.pun
 geometry={
 nosymm,noorient,angstrom;
 C,,        -0.00420004,      0.08511218,     -0.43764416
 C,,        -0.33680536,     -0.09715874,      0.94681648
 H,,         1.06913897,     -0.16610410,     -0.52387809
 H,,        -0.11059882,      1.11072186,     -0.80564341
 H,,        -0.53205718,     -0.57947709,     -1.12921215
 H,,        -0.08547758,     -0.35209412,      1.95056131
 }
 basis=6-31g**
  
 INT
  
 HF
  
 MULTI
 config,csf;
 OCC,9;
 CLOSED,7;
 WF,16,1,0;
 STATE,2;
 WEIGHT,1,1;
 MAXITER,100;
  
 RS2,shift=.3,mix=2,root=  2
 OCC,9;
 CLOSED,7;
 WF,16,1,0;
 STATE,2;
  
 forces
  
 RS2,shift=.3,mix=2,root=  1
 OCC,9;
 CLOSED,7;
 WF,16,1,0;
 STATE,2;
  
 forces
 ---

 Variables initialized (516), CPU time= 0.01 sec
 Commands  initialized (293), CPU time= 0.02 sec, 434 directives.
 Default parameters read. Elapsed time= 0.07 sec
 Checking input...
 Passed
1


                                         ***  PROGRAM SYSTEM MOLPRO  ***
                         Copyright, University College Cardiff Consultants Limited, 2004

                                    Version 2006.1 linked 11 Jul 2006 00:19:12


 **********************************************************************************************************************************
 LABEL *   SA-2-CAS(2/2)                                                                 
 Linux-2.6.9-42.0.2.ELsmp/compute-4-12.local(x86_64) 64 bit version (pgf6.0-5/acml)      DATE:   5-Jul-07         TIME: 11:36:54  
 **********************************************************************************************************************************

 Patch level:      1

 Modules:           develop
 **********************************************************************************************************************************

 Variable memory set to   50000000 words,  buffer space   230000 words



 Permanent file  2  uio.wfn  assigned.  Implementation=df    Size=  1.48 MB


 PROGRAM * RESTART 


 Reading variables from file 2

 FOCKDONE        =      0.00000000
 SCFDONE         =      1.00000000
 DIRECT          =      0.00000000
 BASIS           =    6-31G**
 NELEC           =     16.00000000
 SPIN            =      0.00000000
 PROGRAM         =    FORCES
 CPUSTEP         =      1.89000000
 SYSSTEP         =      0.01000000
 WALLSTEP        =      1.90000000
 BASINP          =    610.00000000
 CPUTOT          =      8.42000000
 DMX             =      0.31584713
 DMY             =     -0.04515848
 DMZ             =     -0.17552826
 EMP2(1:2)       =    -78.14490744   -78.14460902
 ENERGR(1:2)     =    -77.89195855   -77.89121580
 ENERGU(1:2)     =    -78.21587589   -77.89121582
 ENERGY(1:2)     =    -78.14490744   -78.14460902
 ENUC            =     32.19182671
 GRADENERG       =    -78.14460902
 GRADEXFAC       =   9999.00000000
 GRADMETHOD      =      9.00000000
 GRADRECORD      =   5201.10000000
 LASTNELEC       =      2.00000000
 LASTSPIN        =      0.00000000
 LASTSYM         =      1.00000000
 MSENERGY(1:2)   =    -78.14490744   -78.14460902
 ORBITAL         =   2140.20000000
 ROOT(1:2)       =      1.00000000     2.00000000
 SEIG_MIN        =      0.00746064
 STATUS          =      1.00000000
 SYSTOT          =      1.32000000
 TROV(1:48)      =      0.00416159    -0.00420526     0.00000180    -0.00000191     0.00005793    -0.00005905
                        0.00000387    -0.00000404     0.00000128    -0.00000133    -0.00000108     0.00000112
                        0.00000100    -0.00000104     0.00000906    -0.00000940     0.00002302    -0.00002393
                        0.00003671    -0.00003810     0.00002291    -0.00002377     0.00001365    -0.00001416
                        0.00000609    -0.00000632     0.00000609    -0.00000632     0.00000356    -0.00000356
                        0.00000824    -0.00000844     0.00000850    -0.00000869     0.00000859    -0.00000877
                        0.00000779    -0.00000795     0.00000530    -0.00000541     0.00000530    -0.00000541
                       -0.00001593     0.00001573    -0.00004975     0.00005037     0.00001687    -0.00001711
 WALLTOT         =      9.87000000
 MODULE_DEVELOP  =    true
 LASTORB         =    MCSCF
 PGROUP          =    C1  
 CX1             =      0.04535342
 CY1             =      0.15117808
 CZ1             =     -0.85037669
 CX2             =     -0.57825615
 CY2             =     -0.20220068
 CZ2             =      1.81035750
 HX3             =      2.04657325
 HY3             =     -0.29857671
 HZ3             =     -1.10171025
 HX4             =     -0.22676712
 HY4             =      2.09003694
 HZ4             =     -1.49099380
 HX5             =     -1.02045203
 HY5             =     -1.09037190
 HZ5             =     -2.10137530
 HX6             =     -0.26645136
 HY6             =     -0.64817601
 HZ6             =      3.73598828
 CX1A            =     -0.00963730
 CY1A            =      0.16126857
 CZ1A            =     -0.82703928
 CX2A            =     -0.63556725
 CY2A            =     -0.18379420
 CZ2A            =      1.78902744
 HX3A            =      2.02086711
 HY3A            =     -0.31406891
 HZ3A            =     -0.98970196
 HX4A            =     -0.20874990
 HY4A            =      2.09876929
 HZ4A            =     -1.52236539
 HX5A            =     -1.00513830
 HY5A            =     -1.09503874
 HZ5A            =     -2.13377815
 HX6A            =     -0.16177432
 HY6A            =     -0.66524629
 HZ6A            =      3.68574702


 **********************************************************************************************************************************
 DATASETS  * FILE   NREC   LENGTH (MB)   RECORD NAMES
              2       7        1.55       500      610      700     1000     2100     2140      701   
                                          VAR    BASINP    GEOM     BASIS     RHF     MCSCF    GEOM   

 PROGRAMS   *        TOTAL   RESTART
 CPU TIMES  *         0.41      0.01
 REAL TIME  *         0.43 SEC
 DISK USED  *         0.03 MB      
 **********************************************************************************************************************************

 PUNCHFILE ALL.PUN OPENED
 SETTING BASIS          =    6-31G**


 Using spherical harmonics

 Library entry C      S 6-31G                selected for orbital group  1
 Library entry C      P 6-31G                selected for orbital group  1
 Library entry C      D 6-31G*               selected for orbital group  1
 Library entry H      S 6-31G                selected for orbital group  2
 Library entry H      P 6-31G**              selected for orbital group  2

1PROGRAM * SEWARD (Integral evaluation for generally contracted gaussian basis sets)     Author: Roland Lindh, 1990

 Geometry written to block  1 of record 701


 Point group  C1  



 ATOMIC COORDINATES

 NR  ATOM    CHARGE       X              Y              Z

   1  C       6.00   -0.007936925    0.160838698   -0.827027543
   2  C       6.00   -0.636469842   -0.183603396    1.789223709
   3  H       1.00    2.020379697   -0.313891235   -0.989986042
   4  H       1.00   -0.209001464    2.098959965   -1.522445289
   5  H       1.00   -1.005442280   -1.095052917   -2.133901546
   6  H       1.00   -0.161529204   -0.665361409    3.686026400

 Bond lengths in Bohr (Angstrom)

 1-2  2.712649000  1-3  2.089495705  1-4  2.068899909  1-5  2.068864506  2-6  2.013832128
     (1.435472135)     (1.105713589)     (1.094814762)     (1.094796028)     (1.065674146)

 Bond angles

  1-2-6  152.14670313   2-1-3  105.74101104   2-1-4  114.87350235   2-1-5  114.86249538

  3-1-4  106.31756911   3-1-5  106.31093216   4-1-5  108.02824546

 NUCLEAR CHARGE:                   16
 NUMBER OF PRIMITIVE AOS:          84
 NUMBER OF SYMMETRY AOS:           82
 NUMBER OF CONTRACTIONS:           48   (  48A   )
 NUMBER OF CORE ORBITALS:           2   (   2A   )
 NUMBER OF VALENCE ORBITALS:       12   (  12A   )


 NUCLEAR REPULSION ENERGY   32.18803168


 Eigenvalues of metric

         1 0.748E-02 0.301E-01 0.332E-01 0.493E-01 0.600E-01 0.156E+00 0.176E+00 0.181E+00


 Contracted 2-electron integrals neglected if value below      1.0D-11
 AO integral compression algorithm  1   Integral accuracy      1.0D-11

     3.670 MB (compressed) written to integral file ( 57.5%)


 NUMBER OF SORTED TWO-ELECTRON INTEGRALS:     692076.     BUFFER LENGTH:  32768
 NUMBER OF SEGMENTS:   1  SEGMENT LENGTH:     692076      RECORD LENGTH: 524288

 Memory used in sort:       1.25 MW

 SORT1 READ     831608. AND WROTE     676484. INTEGRALS IN    2 RECORDS. CPU TIME:     0.04 SEC, REAL TIME:     0.08 SEC
 SORT2 READ     676484. AND WROTE     692076. INTEGRALS IN   14 RECORDS. CPU TIME:     0.07 SEC, REAL TIME:     0.11 SEC

 FILE SIZES:   FILE 1:    5.6 MBYTE,  FILE 4:    8.4 MBYTE,   TOTAL:   14.0 MBYTE

 OPERATOR DM      FOR CENTER  0  COORDINATES:    0.000000    0.000000    0.000000


 **********************************************************************************************************************************
 DATASETS  * FILE   NREC   LENGTH (MB)   RECORD NAMES
              1      19        4.88       500      610      701      900      950      970     1000     1100     1400     1410   
                                          VAR    BASINP    GEOM    SYMINP    ZMAT    AOBASIS   BASIS      S        T        V 
                                         1200     1210     1080     1600      129      960     1650     1300     1700   
                                          H0       H01     AOSYM     SMH      P2S    ABASIS   MOLCAS    ERIS     OPER   

              2       7        1.55       500      610      700     1000     2100     2140      701   
                                          VAR    BASINP    GEOM     BASIS     RHF     MCSCF    GEOM   

 PROGRAMS   *        TOTAL       INT   RESTART
 CPU TIMES  *         0.91      0.46      0.01
 REAL TIME  *         1.04 SEC
 DISK USED  *        15.80 MB      
 **********************************************************************************************************************************

1PROGRAM * RHF-SCF (CLOSED SHELL)       Authors: W. Meyer, H.-J. Werner


 NUMBER OF ELECTRONS:       8+    8-    SPACE SYMMETRY=1    SPIN SYMMETRY=Singlet 
 CONVERGENCE THRESHOLDS:    1.00E-06 (Density)    1.00E-07 (Energy)
 MAX. NUMBER OF ITERATIONS:       60
 INTERPOLATION TYPE:            DIIS
 INTERPOLATION STEPS:              2 (START)      1 (STEP)
 LEVEL SHIFTS:                  0.00 (CLOSED)  0.00 (OPEN) 



 Molecular orbitals read from record     2100.2  Type=RHF/CANONICAL (state 1.1)

 Molecular orbital dump at record        2100.2

 ITERATION    DDIFF          GRAD             ENERGY        2-EL.EN.            DIPOLE MOMENTS         DIIS
    1      0.000D+00      0.000D+00       -77.87410721    114.995115   0.437157  -0.072267  -0.192042    0
    2      0.000D+00      0.422D-04       -77.87410811    114.995244   0.438161  -0.072487  -0.192207    1
    3      0.453D-04      0.121D-04       -77.87410822    114.995173   0.438742  -0.072595  -0.192401    2
    4      0.218D-04      0.257D-05       -77.87410822    114.995283   0.438845  -0.072616  -0.192427    3
    5      0.729D-05      0.939D-06       -77.87410822    114.995213   0.438866  -0.072616  -0.192458    4
    6      0.288D-05      0.289D-06       -77.87410822    114.995232   0.438867  -0.072615  -0.192465    5
    7      0.142D-05      0.786D-07       -77.87410822    114.995220   0.438865  -0.072614  -0.192466    6
    8      0.369D-06      0.204D-07       -77.87410822    114.995224   0.438864  -0.072614  -0.192466    0

 Final occupancy:   8

 !RHF STATE 1.1 ENERGY                -77.874108223717
 Nuclear energy                        32.18803168
 One-electron energy                 -167.55975176
 Two-electron energy                   57.49761186
 Virial quotient                       -0.99898620
 !RHF STATE 1.1 DIPOLE MOMENT           0.43886420    -0.07261424    -0.19246623
 Dipole moment /Debye                   1.11540846    -0.18455489    -0.48916832


 **********************************************************************************************************************************
 DATASETS  * FILE   NREC   LENGTH (MB)   RECORD NAMES
              1      19        4.88       500      610      701      900      950      970     1000     1100     1400     1410   
                                          VAR    BASINP    GEOM    SYMINP    ZMAT    AOBASIS   BASIS      S        T        V 
                                         1200     1210     1080     1600      129      960     1650     1300     1700   
                                          H0       H01     AOSYM     SMH      P2S    ABASIS   MOLCAS    ERIS     OPER   

              2       7        1.55       500      610      700     1000     2100     2140      701   
                                          VAR    BASINP    GEOM     BASIS     RHF     MCSCF    GEOM   

 PROGRAMS   *        TOTAL        HF       INT   RESTART
 CPU TIMES  *         1.11      0.18      0.46      0.01
 REAL TIME  *         1.26 SEC
 DISK USED  *        15.80 MB      
 **********************************************************************************************************************************

1PROGRAM * MULTI (Direct Multiconfiguration SCF)       Authors: P.J. Knowles, H.-J. Werner (1984)     S.T. Elbert (1988)


 Number of closed-shell orbitals:  7 (  7 )
 Number of active  orbitals:       2 (  2 )
 Number of external orbitals:     39 ( 39 )

 State symmetry 1

 Number of electrons:     2    Spin symmetry=Singlet   Space symmetry=1
 Number of states:        2
 Number of CSFs:          3

 Iteration controls:
             1  2  3  4  5  6  7  8  9 10 11 12 13 14 15 16 17 18 19 20 21 22 23 24 25 26 27 28 29 30 31 32 33 34 35 36 37 38 39
 DIAGCI      T  T  T  T  T  T  T  T  T  T  T  T  T  T  T  T  T  T  T  T  T  T  T  T  T  T  T  T  T  T  T  T  T  T  T  T  T  T  T
 WERNER      T  T  T  T  T  T  T  T  T  T  T  T  T  T  T  T  T  T  T  T  T  T  T  T  T  T  T  T  T  T  T  T  T  T  T  T  T  T  T
 INTERNAL    F  T  T  T  T  T  T  T  T  T  T  T  T  T  T  T  T  T  T  T  T  T  T  T  T  T  T  T  T  T  T  T  T  T  T  T  T  T  T

 Maximum number of shells:             2
 Maximum number of spin couplings:     1

 Storage for configuration lists       6, coupling coefficients      5, address lists     28

 Molecular orbitals read from record     2140.2  Type=MCSCF/NATURAL (state averaged)

 Wavefunction dump at record             2140.2

 Convergence thresholds  0.10E-01 (gradient)  0.10E-05 (energy)  0.10E-02 (step length)

 Weight factors for state symmetry  1:    0.50000   0.50000

 Eigenvalues of redundancy matrix
   1-  1    0.000000

 Number of orbital rotations:     365     (  14 Core/Active  273 Core/Virtual   0 Active/Active   78 Active/Virtual)
 Total number of variables:       371


 ITER. MIC  NCI  NEG     ENERGY(VAR)     ENERGY(PROJ)   ENERGY CHANGE     GRAD(0)  GRAD(ORB)   GRAD(CI)     STEP       TIME

   1   20    7    0     -77.89170192     -77.89170283   -0.00000091    0.00132312 0.00000000 0.00000000  0.82D-03      0.17

 ** WVFN ****  CONVERGENCE REACHED, FINAL GRADIENT:  0.31D-06



 Results for state 1.1
 =====================

 !MCSCF STATE 1.1 ENERGY              -77.892110935045
 Nuclear energy                        32.18803168
 Kinetic energy                        77.95774809
 One electron energy                 -167.58651014
 Two electron energy                   57.50636752
 Virial ratio                           1.99915804

 !MCSCF STATE 1.1 DIPOLE MOMENT         0.34105511    -0.06008410    -0.13052316
 Dipole moment /Debye                   0.86681884    -0.15270854    -0.33173506

 Results for state 2.1
 =====================

 !MCSCF STATE 2.1 ENERGY              -77.891294715128
 Nuclear energy                        32.18803168
 Kinetic energy                        77.94921646
 One electron energy                 -167.59832917
 Two electron energy                   57.51900278
 Virial ratio                           1.99925693

 !MCSCF STATE 2.1 DIPOLE MOMENT         0.25681679    -0.04448624    -0.10210149
 Dipole moment /Debye                   0.65272041    -0.11306534    -0.25949909

 State-averaged charge density matrix saved on record  2140.2 (density set 1)

 !MCSCF expec         <1.1|DMX|1.1>     0.341055105784 au =     0.866818835758 Debye
 !MCSCF trans         <2.1|DMX|1.1>     0.017535991418 au =     0.044569125069 Debye
 !MCSCF expec         <2.1|DMX|2.1>     0.256816788025 au =     0.652720412110 Debye

 !MCSCF expec         <1.1|DMY|1.1>    -0.060084096826 au =    -0.152708538810 Debye
 !MCSCF trans         <2.1|DMY|1.1>     0.070276549317 au =     0.178613472213 Debye
 !MCSCF expec         <2.1|DMY|2.1>    -0.044486242727 au =    -0.113065344791 Debye

 !MCSCF expec         <1.1|DMZ|1.1>    -0.130523163056 au =    -0.331735060760 Debye
 !MCSCF trans         <2.1|DMZ|1.1>     0.013457617202 au =     0.034203610727 Debye
 !MCSCF expec         <2.1|DMZ|2.1>    -0.102101485537 au =    -0.259499093612 Debye


 Natural orbital dump (state averaged) at molpro section   2140.2    (Orbital set 2)



 **********************************************************************************************************************************
 DATASETS  * FILE   NREC   LENGTH (MB)   RECORD NAMES
              1      20        6.17       500      610      701      900      950      970     1000     1100     1400     1410   
                                          VAR    BASINP    GEOM    SYMINP    ZMAT    AOBASIS   BASIS      S        T        V 
                                         1200     1210     1080     1600      129      960     1650     1300     1700     1380   
                                          H0       H01     AOSYM     SMH      P2S    ABASIS   MOLCAS    ERIS     OPER     JKOP   

              2       7        1.55       500      610      700     1000     2100     2140      701   
                                          VAR    BASINP    GEOM     BASIS     RHF     MCSCF    GEOM   

 PROGRAMS   *        TOTAL     MULTI        HF       INT   RESTART
 CPU TIMES  *         1.44      0.32      0.18      0.46      0.01
 REAL TIME  *         1.92 SEC
 DISK USED  *        15.80 MB      
 **********************************************************************************************************************************

1PROGRAM * RS2 (Multireference RS Perturbation Theory)     Authors: H.-J. Werner (1993), P. Celani (1998)


 Level shift=0.30

 Convergence thresholds:  THRVAR = 1.00D-10  THRDEN = 1.00D-08

 Number of optimized states:  2  Roots:   1   2
 Number of reference states:  2  Roots:   1   2

 Reference symmetry:                   1   Singlet 
 Number of electrons:                 16
 Maximum number of shells:             4
 Maximum number of spin couplings:     5

 Reference space:        3 conf        3 CSFs
 N elec internal:       28 conf       28 CSFs
 N-1 el internal:       47 conf       72 CSFs
 N-2 el internal:       56 conf      131 CSFs

 Number of electrons in valence space:                     12
 Maximum number of open shell orbitals in reference space:  2
 Maximum number of open shell orbitals in internal spaces:  6


 Number of core orbitals:           2 (   2 )
 Number of closed-shell orbitals:   5 (   5 )
 Number of active  orbitals:        2 (   2 )
 Number of external orbitals:      39 (  39 )

 Molecular orbitals read from record     2140.2  Type=MCSCF/NATURAL (state averaged)

 Coulomb and exchange operators available. No transformation done.

 Number of p-space configurations:   3

 Reference wavefunction optimized for reference space (refopt=1)

 State     Reference Energy 
   1         -77.89211094
   2         -77.89129472

 Number of blocks in overlap matrix:     2   Smallest eigenvalue:  0.10D+01
 Number of N-2 electron functions:      71
 Number of N-1 electron functions:      72

 Number of internal configurations:                   28
 Number of singly external configurations:          2808
 Number of doubly external configurations:         54210
 Total number of contracted configurations:        57046
 Total number of uncontracted configurations:     102481

 Weight factors for SA-density in H0:    0.500000  0.500000

 FIMAX=  0.24D-01  FXMAX=  0.10D-12  DIAG=  F  T  NOREF=1  NOINT=0  IHPPD=2

 Nuclear energy:                      32.18803168
 Core energy:                        -77.91364918
 Zeroth-order valence energy:         -7.22016391     -7.19240116
 Zeroth-order total energy:          -52.94578141    -52.91801865
 First-order energy:                 -24.94632953    -24.97327606

 Using uncontracted singles

 Diagonal Coupling coefficients finished.               Storage:    4244 words, CPU-Time:      0.00 seconds.
 Energy denominators for pairs finished in 0 passes.    Storage:    6193 words, CPU-time:      0.00 seconds.

 A level shift of 0.30 is applied.

  ITER. STATE  ROOT      NORM       CORR.ENERGY   TOTAL ENERGY   ENERGY CHANGE       DEN1      VAR(S)    VAR(P)      TIME
    1     1     1     1.00943363    -0.00283009   -77.89494102    -0.00283009    -0.23145937  0.94D-02  0.60D-01     0.07
    1     2     2     1.01000691    -0.00300207   -77.89429679    -0.00300207    -0.23221176  0.10D-01  0.59D-01     0.07
    2     1     1     1.06944055    -0.25288384   -78.14499477    -0.25005375     0.00007252  0.17D-04  0.50D-05     0.11
    2     2     2     1.06974004    -0.25333699   -78.14463170    -0.25033492     0.00003369  0.19D-04  0.54D-05     0.11
    3     1     1     1.06943001    -0.25292411   -78.14503505    -0.00004027    -0.00001338  0.12D-07  0.19D-07     0.15
    3     2     2     1.06972414    -0.25337818   -78.14467290    -0.00004119    -0.00001415  0.13D-07  0.22D-07     0.15
    4     1     1     1.06945224    -0.25293085   -78.14504178    -0.00000674     0.00000012  0.88D-10  0.15D-10     0.19
    4     2     2     1.06974994    -0.25338600   -78.14468071    -0.00000781    -0.00000002  0.10D-09  0.18D-10     0.19
    5     1     1     1.06945228    -0.25293086   -78.14504179    -0.00000001    -0.00000001  0.22D-12  0.13D-12     0.24
    5     2     2     1.06974991    -0.25338599   -78.14468070     0.00000001    -0.00000001  0.20D-12  0.14D-12     0.24
    6     1     1     1.06945232    -0.25293087   -78.14504180    -0.00000001     0.00000000  0.14D-14  0.33D-15     0.28
    6     2     2     1.06974997    -0.25338600   -78.14468072    -0.00000002     0.00000000  0.16D-14  0.31D-15     0.28
    7     1     1     1.06945232    -0.25293087   -78.14504180     0.00000000     0.00000000  0.82D-17  0.21D-17     0.32
    7     2     2     1.06974997    -0.25338600   -78.14468072     0.00000000     0.00000000  0.71D-17  0.19D-17     0.32

 Energies without level shift correction:

    7     1     1     1.06945232    -0.23209517   -78.12420611
    7     2     2     1.06974997    -0.23246101   -78.12375573

 Energy contributions for state 1.1:
 ===================================

            Energy contr.        Norm of FOWF
 Space I     -0.00074575          0.00051791
 Space S     -0.02465340          0.00940204
 Space P     -0.20669602          0.05953238

 Energy contributions for state 2.1:
 ===================================

            Energy contr.        Norm of FOWF
 Space I     -0.00031945          0.00027589
 Space S     -0.02575904          0.01002008
 Space P     -0.20638252          0.05945399


 =====================================
 Analysis of CPU times by interactions
 =====================================

       I      S      P

 I   0.0%
 S   6.2%   0.0%
 P   3.1%  28.1%  28.1%

 Initialization:  18.8%
 Other:           15.6%

 Total CPU:        0.3 seconds
 =====================================


 Initialize record     7000.1

 *******************************************
 * MS-CASPT2 analysis                      *
 *******************************************


 S final
                   1             2
         1     1.0694523     0.0000000
         2     0.0000000     1.0697500

 Heff final
                   1             2
         1   -78.1242061     0.0000000
         2     0.0000000   -78.1237557

 *******************************************
 * Diagonalization of Heff                 *
 * Unscaled effective Hamiltonian          *
 *******************************************

 Heff Brandow symmetrized
                   1             2
         1   -78.1242061     0.0000000
         2     0.0000000   -78.1237557

 MS-CASPT2 energies

 STATE       ENERGY     MIXING COEFFICIENTS
    1    -78.1242061    1.0000    0.0000
    2    -78.1237557    0.0000    1.0000

 =====================================

 Heff Half Sum symmetrized
                   1             2
         1   -78.1242061     0.0000000
         2     0.0000000   -78.1237557

 MS-CASPT2 energies (unshifted)

 STATE       ENERGY     MIXING COEFFICIENTS
    1    -78.1242061    1.0000    0.0000
    2    -78.1237557    0.0000    1.0000

 *******************************************
 * Diagonalization of Heff                 *
 * Scale diagonal effective Hamiltonian    *
 * Heff(scaled) = Heff(unscaled) - LS*Sii  *
 *******************************************

 Heff Half Sum symmetrized
                   1             2
         1   -78.1450418     0.0000000
         2     0.0000000   -78.1446807

 MS-CASPT2 energies

 STATE       ENERGY     MIXING COEFFICIENTS
    1    -78.1450418    1.0000    0.0000
    2    -78.1446807    0.0000    1.0000

 Norm of Psi_mix recalculated     1.06974997
 
 *******************************************
 * End of MS-CASPT2 analysis               *
 * Properties not yet implemented          *
 *******************************************

 Now solve CP-CASPT2 equations

 A level shift of 0.30 is applied.

  ITER. STATE  ROOT      NORM       CORR.ENERGY   TOTAL ENERGY   ENERGY CHANGE       DEN1      VAR(S)    VAR(P)      TIME
    1     1     1     1.00051791    -0.00090113   -77.89301206    -0.00090113     0.00000000  0.16D-10  0.96D-10     0.38
    1     2     2     1.01609778    -0.00514879   -77.89644350    -0.00514879    -0.32398916  0.16D-01  0.85D-01     0.38
    2     1     1     1.00000000     0.00000000   -77.89211094     0.00090113     0.00000000  0.29D-13  0.85D-14     0.42
    2     2     2     1.10141206    -0.35503933   -78.24633404    -0.34989054     0.00000036  0.30D-04  0.93D-05     0.42
    3     1     1     1.00000000     0.00000000   -77.89211094     0.00000000     0.00000000  0.19D-16  0.32D-16     0.46
    3     2     2     1.10141277    -0.35511321   -78.24640792    -0.00007388    -0.00002351  0.26D-07  0.35D-07     0.46
    4     1     1     1.00000000     0.00000000   -77.89211094     0.00000000     0.00000000  0.16D-18  0.62D-19     0.50
    4     2     2     1.10145337    -0.35512551   -78.24642023    -0.00001230    -0.00000016  0.18D-09  0.37D-10     0.50
    5     1     1     1.00000000     0.00000000   -77.89211094     0.00000000     0.00000000  0.00D+00  0.00D+00     0.54
    5     2     2     1.10145336    -0.35512551   -78.24642023     0.00000000    -0.00000003  0.45D-12  0.24D-12     0.54
    6     1     1     1.00000000     0.00000000   -77.89211094     0.00000000     0.00000000  0.00D+00  0.00D+00     0.58
    6     2     2     1.10145345    -0.35512554   -78.24642025    -0.00000003     0.00000000  0.33D-14  0.74D-15     0.58
    7     1     1     1.00000000     0.00000000   -77.89211094     0.00000000     0.00000000  0.00D+00  0.00D+00     0.62
    7     2     2     1.10145345    -0.35512554   -78.24642025     0.00000000     0.00000000  0.18D-16  0.45D-17     0.62

 Energies without level shift correction:

    7     1     1     1.00000000     0.00000000   -77.89211094
    7     2     2     1.10145345    -0.32468950   -78.21598422

 Energy contributions for state 1.1:
 ===================================

            Energy contr.        Norm of FOWF
 Space I      0.00000000          0.00000000
 Space S      0.00000000          0.00000000
 Space P      0.00000000          0.00000000

 Energy contributions for state 2.1:
 ===================================

            Energy contr.        Norm of FOWF
 Space I     -0.00072936          0.00065122
 Space S     -0.03932943          0.01590417
 Space P     -0.28463070          0.08489806


 =====================================
 Analysis of CPU times by interactions
 =====================================

       I      S      P

 I   0.0%
 S   3.2%   1.6%
 P   1.6%  25.8%  30.6%

 Initialization:  54.8%
 Other:          -17.7%

 Total CPU:        0.6 seconds
 =====================================



 Reference coefficients greater than 0.0500000
 =============================================
 22222/\          -0.0000539   1.0000000
 2222220           0.8224467   0.0000443
 2222202          -0.5688422  -0.0000306



 RESULTS FOR STATE 1.1
 =====================

 Coefficient of reference function:   C(0) = 1.00000000

 Energy contributions of configuration classes

 Class           Norm          ECORR1        ECORR2
 +++++++++++++++++++++++++++++++++++++++++++++++++++
 Internals    0.00000000    0.00000000    0.26936114
 Singles      0.00000000    0.00000000   -0.02860278
 Pairs        0.00000000    0.00000000   -0.49302636
 Total        1.00000000    0.00000000   -0.25226800
 +++++++++++++++++++++++++++++++++++++++++++++++++++


 Reference energy                     -77.89211094
 Nuclear energy                        32.18803168
 Kinetic energy                        77.95774809
 One electron energy                 -167.58651014
 Two electron energy                   57.25343665
 Virial quotient                       -1.00240250
 Correlation energy                     0.00000000
 !RSPT2 STATE 1.1 ENERGY              -78.145041804106
 !RSPT2 STATE 1.1 DIPOLE MOMENT         0.34105493    -0.06008478    -0.13052329
 Dipole moment /Debye                   0.86681840    -0.15271028    -0.33173540



 RESULTS FOR STATE 2.1
 =====================

 Coefficient of reference function:   C(0) = 1.00000000

 Energy contributions of configuration classes

 Class           Norm          ECORR1        ECORR2
 +++++++++++++++++++++++++++++++++++++++++++++++++++
 Internals    0.00065122   -0.00047632    0.21312997
 Singles      0.01590417   -0.03177443   -0.05548909
 Pairs        0.08489806   -0.24206024   -0.41102688
 Total        1.10145345   -0.27431099   -0.25338600
 +++++++++++++++++++++++++++++++++++++++++++++++++++


 Reference energy                     -77.89129472
 Nuclear energy                        32.18803168
 Kinetic energy                        78.18078182
 One electron energy                 -167.44579414
 Two electron energy                   57.11308174
 Virial quotient                       -0.99953824
 Correlation energy                    -0.35512554
 !RSPT2 STATE 2.1 ENERGY              -78.144680718056
 !RSPT2 STATE 2.1 DIPOLE MOMENT         0.28122807    -0.04889033    -0.11092276
 Dipole moment /Debye                   0.71476365    -0.12425869    -0.28191907

 !RSPT overlap           <2.1||1.1>     0.000003219363

 !RSPT trans          <2.1|DMX|1.1>     0.013711427300 au =     0.034848689398 Debye
 !RSPT trans          <2.1|DMY|1.1>     0.054950155821 au =     0.139660217032 Debye
 !RSPT trans          <2.1|DMZ|1.1>     0.010517152250 au =     0.026730183815 Debye

 *** Long output written to logfile /u/s/ben/103011/tmp.log ***


 Solving MCSCF z-vector equations for state  1.1, requested accuracy=      0.10D-05
 Convergence reached in  15 iterations ( 15 expansion vectors), accuracy=  0.35D-06

 Reference dipole moments:              0.29893595    -0.05228517    -0.11631232
 !RSPT2 dipole moments (ED):            0.28315691    -0.04358728    -0.14109717

 RSPT2 Gradient info saved on record         5200.1

 CPU-time for rhs:            0.67 sec
 CPU-time for cpmcscf:        0.15 sec
 CPU-time for densities:      0.00 sec


 **********************************************************************************************************************************
 DATASETS  * FILE   NREC   LENGTH (MB)   RECORD NAMES
              1      27        8.75       500      610      701      900      950      970     1000     1100     1400     1410   
                                          VAR    BASINP    GEOM    SYMINP    ZMAT    AOBASIS   BASIS      S        T        V 
                                         1200     1210     1080     1600      129      960     1650     1300     1700     1380   
                                          H0       H01     AOSYM     SMH      P2S    ABASIS   MOLCAS    ERIS     OPER     JKOP   
                                         7000     7001     7002     5200     5210     7009     7005   
                                                                   RS2GRAD  RS2GRAD    

              2       7        1.55       500      610      700     1000     2100     2140      701   
                                          VAR    BASINP    GEOM     BASIS     RHF     MCSCF    GEOM   

 PROGRAMS   *        TOTAL       RS2     MULTI        HF       INT   RESTART
 CPU TIMES  *         3.07      1.60      0.32      0.18      0.46      0.01
 REAL TIME  *         3.89 SEC
 DISK USED  *        27.39 MB      
 **********************************************************************************************************************************

1PROGRAM * ALASKA (Gradient of the energy)     Author: R. Lindh


 RSPT2 Gradient info restored from record    5200.1

 Number of core orbitals:           2 (   2 )
 Number of closed-shell orbitals:   5 (   5 )
 Number of active  orbitals:        2 (   2 )
 Number of external orbitals:      39 (  39 )

 Integral thresholds in T2TRAN:            1.0D-10 (PROD)

 Available memory for Transformation:  47861442 words
 Memory needed for incore algorithm:     126587 words
 Minimum memory needed:                   41915 words

 Memory used for transformation:           0.13 MW
 Available memory for gradients:          49.73 MW

 CPU for transformation:                   0.11 sec
 CPU for integrals and gradient:           1.49 sec
 Total CPU:                                1.60 sec

 Prescreening statistics:
 ========================

 Total number of shell quadruplets:        5.57D+03
 Number of shell quadruplets processed:    5.24D+03 ( 94.14%)

 RSPT2 GRADIENT FOR STATE 1.1

 Atom          dE/dx               dE/dy               dE/dz

   1        -0.022631342         0.005533996         0.000615078
   2         0.023497306        -0.005013328        -0.004439669
   3         0.001768760        -0.001772097         0.006911652
   4         0.002834310        -0.000050039        -0.001683921
   5         0.002691908        -0.000657748        -0.001781310
   6        -0.008160942         0.001959216         0.000378169



 **********************************************************************************************************************************
 DATASETS  * FILE   NREC   LENGTH (MB)   RECORD NAMES
              1      28        8.77       500      610      701      900      950      970     1000     1100     1400     1410   
                                          VAR    BASINP    GEOM    SYMINP    ZMAT    AOBASIS   BASIS      S        T        V 
                                         1200     1210     1080     1600      129      960     1650     1300     1700     1380   
                                          H0       H01     AOSYM     SMH      P2S    ABASIS   MOLCAS    ERIS     OPER     JKOP   
                                         7000     7001     7002     5200     5210     7009     7005      702   
                                                                   RS2GRAD  RS2GRAD                     GEOM   

              2       8        1.57       500      610      700     1000     2100     2140      701      702   
                                          VAR    BASINP    GEOM     BASIS     RHF     MCSCF    GEOM     GEOM   

 PROGRAMS   *        TOTAL    FORCES       RS2     MULTI        HF       INT   RESTART
 CPU TIMES  *         4.97      1.88      1.60      0.32      0.18      0.46      0.01
 REAL TIME  *         6.14 SEC
 DISK USED  *        27.39 MB      
 **********************************************************************************************************************************

1PROGRAM * RS2 (Multireference RS Perturbation Theory)     Authors: H.-J. Werner (1993), P. Celani (1998)


 Level shift=0.30

 Convergence thresholds:  THRVAR = 1.00D-10  THRDEN = 1.00D-08

 Number of optimized states:  2  Roots:   1   2
 Number of reference states:  2  Roots:   1   2

 Reference symmetry:                   1   Singlet 
 Number of electrons:                 16
 Maximum number of shells:             4
 Maximum number of spin couplings:     5

 Reference space:        3 conf        3 CSFs
 N elec internal:       28 conf       28 CSFs
 N-1 el internal:       47 conf       72 CSFs
 N-2 el internal:       56 conf      131 CSFs

 Number of electrons in valence space:                     12
 Maximum number of open shell orbitals in reference space:  2
 Maximum number of open shell orbitals in internal spaces:  6


 Number of core orbitals:           2 (   2 )
 Number of closed-shell orbitals:   5 (   5 )
 Number of active  orbitals:        2 (   2 )
 Number of external orbitals:      39 (  39 )

 Molecular orbitals read from record     2140.2  Type=MCSCF/NATURAL (state averaged)

 Coulomb and exchange operators available. No transformation done.

 Number of p-space configurations:   3

 Reference wavefunction optimized for reference space (refopt=1)

 State     Reference Energy 
   1         -77.89211094
   2         -77.89129472

 Number of blocks in overlap matrix:     2   Smallest eigenvalue:  0.10D+01
 Number of N-2 electron functions:      71
 Number of N-1 electron functions:      72

 Number of internal configurations:                   28
 Number of singly external configurations:          2808
 Number of doubly external configurations:         54210
 Total number of contracted configurations:        57046
 Total number of uncontracted configurations:     102481

 Weight factors for SA-density in H0:    0.500000  0.500000

 FIMAX=  0.24D-01  FXMAX=  0.71D-13  DIAG=  F  T  NOREF=1  NOINT=0  IHPPD=2

 Nuclear energy:                      32.18803168
 Core energy:                        -77.91364918
 Zeroth-order valence energy:         -7.22016391     -7.19240116
 Zeroth-order total energy:          -52.94578141    -52.91801865
 First-order energy:                 -24.94632953    -24.97327606

 Using uncontracted singles

 Diagonal Coupling coefficients finished.               Storage:    4244 words, CPU-Time:      0.01 seconds.
 Energy denominators for pairs finished in 0 passes.    Storage:    6193 words, CPU-time:      0.00 seconds.

 A level shift of 0.30 is applied.

  ITER. STATE  ROOT      NORM       CORR.ENERGY   TOTAL ENERGY   ENERGY CHANGE       DEN1      VAR(S)    VAR(P)      TIME
    1     1     1     1.00943363    -0.00283009   -77.89494102    -0.00283009    -0.23145937  0.94D-02  0.60D-01     0.07
    1     2     2     1.01000691    -0.00300207   -77.89429679    -0.00300207    -0.23221176  0.10D-01  0.59D-01     0.07
    2     1     1     1.06944055    -0.25288384   -78.14499477    -0.25005375     0.00007252  0.17D-04  0.50D-05     0.11
    2     2     2     1.06974004    -0.25333699   -78.14463170    -0.25033492     0.00003369  0.19D-04  0.54D-05     0.11
    3     1     1     1.06943001    -0.25292411   -78.14503505    -0.00004027    -0.00001338  0.12D-07  0.19D-07     0.15
    3     2     2     1.06972414    -0.25337818   -78.14467290    -0.00004119    -0.00001415  0.13D-07  0.22D-07     0.15
    4     1     1     1.06945224    -0.25293085   -78.14504178    -0.00000674     0.00000012  0.88D-10  0.15D-10     0.19
    4     2     2     1.06974994    -0.25338600   -78.14468071    -0.00000781    -0.00000002  0.10D-09  0.18D-10     0.19
    5     1     1     1.06945228    -0.25293086   -78.14504179    -0.00000001    -0.00000001  0.22D-12  0.13D-12     0.23
    5     2     2     1.06974991    -0.25338599   -78.14468070     0.00000001    -0.00000001  0.20D-12  0.14D-12     0.23
    6     1     1     1.06945232    -0.25293087   -78.14504180    -0.00000001     0.00000000  0.14D-14  0.33D-15     0.27
    6     2     2     1.06974997    -0.25338600   -78.14468072    -0.00000002     0.00000000  0.16D-14  0.31D-15     0.27
    7     1     1     1.06945232    -0.25293087   -78.14504180     0.00000000     0.00000000  0.82D-17  0.21D-17     0.31
    7     2     2     1.06974997    -0.25338600   -78.14468072     0.00000000     0.00000000  0.71D-17  0.19D-17     0.31

 Energies without level shift correction:

    7     1     1     1.06945232    -0.23209517   -78.12420611
    7     2     2     1.06974997    -0.23246101   -78.12375573

 Energy contributions for state 1.1:
 ===================================

            Energy contr.        Norm of FOWF
 Space I     -0.00074575          0.00051791
 Space S     -0.02465340          0.00940204
 Space P     -0.20669602          0.05953238

 Energy contributions for state 2.1:
 ===================================

            Energy contr.        Norm of FOWF
 Space I     -0.00031945          0.00027589
 Space S     -0.02575904          0.01002008
 Space P     -0.20638252          0.05945399


 =====================================
 Analysis of CPU times by interactions
 =====================================

       I      S      P

 I   0.0%
 S   6.5%   3.2%
 P   0.0%  25.8%  32.3%

 Initialization:  19.4%
 Other:           12.9%

 Total CPU:        0.3 seconds
 =====================================


 Initialize record     7000.1

 *******************************************
 * MS-CASPT2 analysis                      *
 *******************************************


 S final
                   1             2
         1     1.0694523     0.0000000
         2     0.0000000     1.0697500

 Heff final
                   1             2
         1   -78.1242061     0.0000000
         2     0.0000000   -78.1237557

 *******************************************
 * Diagonalization of Heff                 *
 * Unscaled effective Hamiltonian          *
 *******************************************

 Heff Brandow symmetrized
                   1             2
         1   -78.1242061     0.0000000
         2     0.0000000   -78.1237557

 MS-CASPT2 energies

 STATE       ENERGY     MIXING COEFFICIENTS
    1    -78.1242061    1.0000    0.0000
    2    -78.1237557    0.0000    1.0000

 =====================================

 Heff Half Sum symmetrized
                   1             2
         1   -78.1242061     0.0000000
         2     0.0000000   -78.1237557

 MS-CASPT2 energies (unshifted)

 STATE       ENERGY     MIXING COEFFICIENTS
    1    -78.1242061    1.0000    0.0000
    2    -78.1237557    0.0000    1.0000

 *******************************************
 * Diagonalization of Heff                 *
 * Scale diagonal effective Hamiltonian    *
 * Heff(scaled) = Heff(unscaled) - LS*Sii  *
 *******************************************

 Heff Half Sum symmetrized
                   1             2
         1   -78.1450418     0.0000000
         2     0.0000000   -78.1446807

 MS-CASPT2 energies

 STATE       ENERGY     MIXING COEFFICIENTS
    1    -78.1450418    1.0000    0.0000
    2    -78.1446807    0.0000    1.0000

 Norm of Psi_mix recalculated     1.06945232
 
 *******************************************
 * End of MS-CASPT2 analysis               *
 * Properties not yet implemented          *
 *******************************************

 Now solve CP-CASPT2 equations

 A level shift of 0.30 is applied.

  ITER. STATE  ROOT      NORM       CORR.ENERGY   TOTAL ENERGY   ENERGY CHANGE       DEN1      VAR(S)    VAR(P)      TIME
    1     1     1     1.01528446    -0.00533109   -77.89744203    -0.00533109    -0.32250145  0.15D-01  0.85D-01     0.37
    1     2     2     1.00027589    -0.00040222   -77.89169693    -0.00040222     0.00000000  0.16D-10  0.10D-09     0.37
    2     1     1     1.10079168    -0.35405851   -78.24616944    -0.34872742     0.00008100  0.27D-04  0.85D-05     0.41
    2     2     2     1.00000000     0.00000000   -77.89129472     0.00040222     0.00000000  0.30D-13  0.86D-14     0.41
    3     1     1     1.10080244    -0.35413130   -78.24624223    -0.00007279    -0.00002187  0.24D-07  0.30D-07     0.45
    3     2     2     1.00000000     0.00000000   -77.89129472     0.00000000     0.00000000  0.21D-16  0.32D-16     0.45
    4     1     1     1.10083714    -0.35414182   -78.24625275    -0.00001052     0.00000017  0.15D-09  0.32D-10     0.50
    4     2     2     1.00000000     0.00000000   -77.89129472     0.00000000     0.00000000  0.10D-18  0.34D-19     0.50
    5     1     1     1.10083726    -0.35414185   -78.24625278    -0.00000003    -0.00000002  0.49D-12  0.22D-12     0.54
    5     2     2     1.00000000     0.00000000   -77.89129472     0.00000000     0.00000000  0.00D+00  0.00D+00     0.54
    6     1     1     1.10083732    -0.35414187   -78.24625280    -0.00000002     0.00000000  0.28D-14  0.78D-15     0.58
    6     2     2     1.00000000     0.00000000   -77.89129472     0.00000000     0.00000000  0.00D+00  0.00D+00     0.58
    7     1     1     1.10083733    -0.35414187   -78.24625281     0.00000000     0.00000000  0.20D-16  0.38D-17     0.62
    7     2     2     1.00000000     0.00000000   -77.89129472     0.00000000     0.00000000  0.00D+00  0.00D+00     0.62

 Energies without level shift correction:

    7     1     1     1.10083733    -0.32389067   -78.21600161
    7     2     2     1.00000000     0.00000000   -77.89129472

 Energy contributions for state 1.1:
 ===================================

            Energy contr.        Norm of FOWF
 Space I     -0.00149904          0.00106776
 Space S     -0.03734192          0.01474983
 Space P     -0.28504971          0.08501973

 Energy contributions for state 2.1:
 ===================================

            Energy contr.        Norm of FOWF
 Space I      0.00000000          0.00000000
 Space S      0.00000000          0.00000000
 Space P      0.00000000          0.00000000


 =====================================
 Analysis of CPU times by interactions
 =====================================

       I      S      P

 I   0.0%
 S   4.8%   1.6%
 P   0.0%  29.0%  35.5%

 Initialization:  56.5%
 Other:          -27.4%

 Total CPU:        0.6 seconds
 =====================================



 Reference coefficients greater than 0.0500000
 =============================================
 22222/\          -0.0000539   1.0000000
 2222220           0.8224467   0.0000443
 2222202          -0.5688422  -0.0000306



 RESULTS FOR STATE 1.1
 =====================

 Coefficient of reference function:   C(0) = 1.00000000

 Energy contributions of configuration classes

 Class           Norm          ECORR1        ECORR2
 +++++++++++++++++++++++++++++++++++++++++++++++++++
 Internals    0.00106776   -0.00105384    0.21179466
 Singles      0.01474983   -0.03029159   -0.05281598
 Pairs        0.08501973   -0.24242113   -0.41190955
 Total        1.10083733   -0.27376656   -0.25293087
 +++++++++++++++++++++++++++++++++++++++++++++++++++


 Reference energy                     -77.89211094
 Nuclear energy                        32.18803168
 Kinetic energy                        78.19216940
 One electron energy                 -167.44392679
 Two electron energy                   57.11085330
 Virial quotient                       -0.99939728
 Correlation energy                    -0.35414187
 !RSPT2 STATE 1.1 ENERGY              -78.145041804106
 !RSPT2 STATE 1.1 DIPOLE MOMENT         0.32795155    -0.05309161    -0.14993974
 Dipole moment /Debye                   0.83351511    -0.13493656    -0.38108383



 RESULTS FOR STATE 2.1
 =====================

 Coefficient of reference function:   C(0) = 1.00000000

 Energy contributions of configuration classes

 Class           Norm          ECORR1        ECORR2
 +++++++++++++++++++++++++++++++++++++++++++++++++++
 Internals    0.00000000    0.00000000    0.25195979
 Singles      0.00000000    0.00000000   -0.01961080
 Pairs        0.00000000    0.00000000   -0.48508083
 Total        1.00000000    0.00000000   -0.25273184
 +++++++++++++++++++++++++++++++++++++++++++++++++++


 Reference energy                     -77.89129472
 Nuclear energy                        32.18803168
 Kinetic energy                        77.94921646
 One electron energy                 -167.59832917
 Two electron energy                   57.26561677
 Virial quotient                       -1.00250758
 Correlation energy                     0.00000000
 !RSPT2 STATE 2.1 ENERGY              -78.144680718056
 !RSPT2 STATE 2.1 DIPOLE MOMENT         0.25681688    -0.04448586    -0.10210141
 Dipole moment /Debye                   0.65272066    -0.11306437    -0.25949891

 !RSPT overlap           <2.1||1.1>    -0.000003266184

 !RSPT trans          <2.1|DMX|1.1>     0.015184870839 au =     0.038593564027 Debye
 !RSPT trans          <2.1|DMY|1.1>     0.060871200143 au =     0.154709024860 Debye
 !RSPT trans          <2.1|DMZ|1.1>     0.011653480919 au =     0.029618254034 Debye

 Solving MCSCF z-vector equations for state  1.1, requested accuracy=      0.10D-05
 Convergence reached in  15 iterations ( 15 expansion vectors), accuracy=  0.36D-06

 Reference dipole moments:              0.29893595    -0.05228517    -0.11631232
 !RSPT2 dipole moments (ED):            0.31737660    -0.04542886    -0.17627292

 RSPT2 Gradient info saved on record         5201.1

 CPU-time for rhs:            0.65 sec
 CPU-time for cpmcscf:        0.15 sec
 CPU-time for densities:      0.00 sec


 **********************************************************************************************************************************
 DATASETS  * FILE   NREC   LENGTH (MB)   RECORD NAMES
              1      32       11.50       500      610      701      900      950      970     1000     1100     1400     1410   
                                          VAR    BASINP    GEOM    SYMINP    ZMAT    AOBASIS   BASIS      S        T        V 
                                         1200     1210     1080     1600      129      960     1650     1300     1700     1380   
                                          H0       H01     AOSYM     SMH      P2S    ABASIS   MOLCAS    ERIS     OPER     JKOP   
                                         7001     7002     5200     5210     7009     7005      702     7000     7003     7004   
                                                          RS2GRAD  RS2GRAD                     GEOM   
                                         5201     5211   
                                        RS2GRAD  RS2GRAD    

              2       8        1.57       500      610      700     1000     2100     2140      701      702   
                                          VAR    BASINP    GEOM     BASIS     RHF     MCSCF    GEOM     GEOM   

 PROGRAMS   *        TOTAL       RS2    FORCES       RS2     MULTI        HF       INT   RESTART
 CPU TIMES  *         6.57      1.59      1.88      1.60      0.32      0.18      0.46      0.01
 REAL TIME  *         8.10 SEC
 DISK USED  *        30.27 MB      
 **********************************************************************************************************************************

1PROGRAM * ALASKA (Gradient of the energy)     Author: R. Lindh


 RSPT2 Gradient info restored from record    5201.1

 Number of core orbitals:           2 (   2 )
 Number of closed-shell orbitals:   5 (   5 )
 Number of active  orbitals:        2 (   2 )
 Number of external orbitals:      39 (  39 )

 Integral thresholds in T2TRAN:            1.0D-10 (PROD)

 Available memory for Transformation:  47861442 words
 Memory needed for incore algorithm:     126587 words
 Minimum memory needed:                   41915 words

 Memory used for transformation:           0.13 MW
 Available memory for gradients:          49.73 MW

 CPU for transformation:                   0.13 sec
 CPU for integrals and gradient:           1.47 sec
 Total CPU:                                1.60 sec

 Prescreening statistics:
 ========================

 Total number of shell quadruplets:        5.57D+03
 Number of shell quadruplets processed:    5.24D+03 ( 94.09%)

 RSPT2 GRADIENT FOR STATE 1.1

 Atom          dE/dx               dE/dy               dE/dz

   1        -0.042136753         0.010290997         0.001185423
   2         0.047383265        -0.010174741        -0.008638612
   3         0.001982234        -0.003131464         0.013728058
   4         0.005054276         0.000610035        -0.004030244
   5         0.004562858        -0.001386535        -0.004395741
   6        -0.016845882         0.003791707         0.002151115



 **********************************************************************************************************************************
 DATASETS  * FILE   NREC   LENGTH (MB)   RECORD NAMES
              1      32       11.50       500      610      701      900      950      970     1000     1100     1400     1410   
                                          VAR    BASINP    GEOM    SYMINP    ZMAT    AOBASIS   BASIS      S        T        V 
                                         1200     1210     1080     1600      129      960     1650     1300     1700     1380   
                                          H0       H01     AOSYM     SMH      P2S    ABASIS   MOLCAS    ERIS     OPER     JKOP   
                                         7001     7002     5200     5210     7009     7005      702     7000     7003     7004   
                                                          RS2GRAD  RS2GRAD                     GEOM   
                                         5201     5211   
                                        RS2GRAD  RS2GRAD    

              2       8        1.57       500      610      700     1000     2100     2140      701      702   
                                          VAR    BASINP    GEOM     BASIS     RHF     MCSCF    GEOM     GEOM   

 PROGRAMS   *        TOTAL    FORCES       RS2    FORCES       RS2     MULTI        HF       INT   RESTART
 CPU TIMES  *         8.53      1.94      1.59      1.88      1.60      0.32      0.18      0.46      0.01
 REAL TIME  *        10.09 SEC
 DISK USED  *        30.27 MB      
 **********************************************************************************************************************************

        RS2             RS2             MULTI           HF-SCF  
    -78.14468072    -78.14468072    -77.89129472    -77.87410822
 **********************************************************************************************************************************
 Variable memory released
