[Molden Format]
[Atoms] Angs
 c       1                    6  7.595000000000e-01  0.000000000000e+00 -1.000000000000e-03
 c       2                    6 -6.125000000000e-01 -5.000000000000e-04 -1.600000000000e-03
 h       3                    1  1.316000000000e+00  6.711000000000e-01  6.662000000000e-01
 h       4                    1  1.317100000000e+00 -6.757000000000e-01 -6.627000000000e-01
 h       5                    1 -1.289500000000e+00 -6.386000000000e-01  6.449000000000e-01
 h       6                    1 -1.288000000000e+00  6.378000000000e-01 -6.494000000000e-01
[GTO]
1
 s           5
      1.238401693800e+03      5.517365048110e-03
      1.862900499200e+02      4.108882855595e-02
      4.225117634600e+01      1.822538212649e-01
      1.167655793200e+01      4.682845943743e-01
      3.593050648200e+00      4.457581733600e-01
 s           1
      4.024514736300e-01      1.000000000000e+00
 s           1
      1.309018266800e-01      1.000000000000e+00
 p           3
      9.468097062100e+00      5.688833201104e-02
      2.010354514200e+00      3.129405933647e-01
      5.477100470700e-01      7.606501650914e-01
 p           1
      1.526861379500e-01      1.000000000000e+00
 d           1
      8.000000000000e-01      1.000000000000e+00

2
 s           5
      1.238401693800e+03      5.517365048110e-03
      1.862900499200e+02      4.108882855595e-02
      4.225117634600e+01      1.822538212649e-01
      1.167655793200e+01      4.682845943743e-01
      3.593050648200e+00      4.457581733600e-01
 s           1
      4.024514736300e-01      1.000000000000e+00
 s           1
      1.309018266800e-01      1.000000000000e+00
 p           3
      9.468097062100e+00      5.688833201104e-02
      2.010354514200e+00      3.129405933647e-01
      5.477100470700e-01      7.606501650914e-01
 p           1
      1.526861379500e-01      1.000000000000e+00
 d           1
      8.000000000000e-01      1.000000000000e+00

3
 s           3
      1.301070100000e+01      3.348548481299e-02
      1.962257200000e+00      2.347218708812e-01
      4.445379600000e-01      8.137702852596e-01
 s           1
      1.219496200000e-01      1.000000000000e+00
 p           1
      8.000000000000e-01      1.000000000000e+00

4
 s           3
      1.301070100000e+01      3.348548481299e-02
      1.962257200000e+00      2.347218708812e-01
      4.445379600000e-01      8.137702852596e-01
 s           1
      1.219496200000e-01      1.000000000000e+00
 p           1
      8.000000000000e-01      1.000000000000e+00

5
 s           3
      1.301070100000e+01      3.348548481299e-02
      1.962257200000e+00      2.347218708812e-01
      4.445379600000e-01      8.137702852596e-01
 s           1
      1.219496200000e-01      1.000000000000e+00
 p           1
      8.000000000000e-01      1.000000000000e+00

6
 s           3
      1.301070100000e+01      3.348548481299e-02
      1.962257200000e+00      2.347218708812e-01
      4.445379600000e-01      8.137702852596e-01
 s           1
      1.219496200000e-01      1.000000000000e+00
 p           1
      8.000000000000e-01      1.000000000000e+00


[5D]
[7F]
[9G]
[MO]
 Ene=  -11.316581
 Spin=  Alpha
 Occup=    2.000000
   1    -0.0047322454133555
   2     0.0021648111994343
   3    -0.0053895972361465
   4    -0.0014730399788859
   5    -0.0000007944663473
   6    -0.0000003061797312
   7     0.0022353160331368
   8    -0.0000003848249963
   9     0.0000022905397015
  10    -0.0002673736337476
  11     0.0000012103028729
  12     0.0002299176356824
  13     0.0004570917859429
  14    -0.0000006217752860
  15    -0.9910546278764771
  16    -0.0344419157558570
  17     0.0222597826898632
  18     0.0006967048730318
  19    -0.0000006088023442
  20     0.0000011871990880
  21     0.0006658278945583
  22     0.0000026440103945
  23    -0.0000021755819484
  24     0.0006469835625974
  25    -0.0000006886495078
  26     0.0012588049584119
  27    -0.0011557103573494
  28    -0.0000021602912472
  29    -0.0002096023535152
  30    -0.0005804183059259
  31     0.0004499832825507
  32     0.0001500527618457
  33     0.0001491040474010
  34    -0.0002094935493316
  35    -0.0005803289308724
  36     0.0004501810305045
  37    -0.0001507101022373
  38    -0.0001476556992769
  39     0.0020968940312237
  40    -0.0045868354833534
  41     0.0007002125737206
  42     0.0009645844974061
  43    -0.0009775403111323
  44     0.0020943789056229
  45    -0.0045892559990429
  46     0.0006977035957371
  47    -0.0009640194246612
  48     0.0009781084516211
 Ene=  -11.187353
 Spin=  Alpha
 Occup=    2.000000
   1     0.9907384964104093
   2     0.0358021644108674
   3    -0.0235754429818548
   4    -0.0001544509364758
   5    -0.0000117792850785
   6     0.0000119060593643
   7     0.0010509974893619
   8     0.0000150400392224
   9    -0.0000146636793126
  10    -0.0004181091831124
  11     0.0000048438756848
  12     0.0012610262914479
  13     0.0006904530051941
  14    -0.0000046242278654
  15    -0.0044930259247610
  16    -0.0024359382465375
  17     0.0064424045695400
  18    -0.0015613961626293
  19    -0.0000007277123494
  20    -0.0000005088881684
  21     0.0019763797068877
  22    -0.0000087830506462
  23     0.0000104910036822
  24     0.0003564865622199
  25    -0.0000002191810694
  26     0.0000673466087293
  27    -0.0006194989352361
  28    -0.0000008114822962
  29    -0.0023147223017802
  30     0.0051121466573968
  31     0.0006325306051279
  32     0.0008711662744188
  33     0.0008689336305905
  34    -0.0023145177842128
  35     0.0051115431904767
  36     0.0006340554038559
  37    -0.0008801367963059
  38    -0.0008590960330028
  39     0.0000483333618037
  40     0.0001609346655843
  41     0.0003704813280724
  42     0.0000828488360361
  43    -0.0000837045797707
  44     0.0000521867499212
  45     0.0001760898425535
  46     0.0003725915830306
  47    -0.0000829130146667
  48     0.0000843744676448
 Ene=   -1.010495
 Spin=  Alpha
 Occup=    2.000000
   1    -0.1805080439319407
   2     0.3388025252149019
   3     0.1116221210605975
   4    -0.1216705051063186
   5    -0.0001978631559468
   6     0.0001073258467691
   7    -0.0263051864395609
   8    -0.0000439165323512
   9     0.0000204214632754
  10    -0.0086063983595052
  11     0.0000083094250410
  12     0.0025552066933168
  13     0.0148376007679550
  14     0.0000134169141800
  15    -0.2164771721086502
  16     0.4411690016844411
  17     0.1246355979710450
  18     0.1103278888001740
  19     0.0000275277335972
  20     0.0000617265874752
  21     0.0181230120798416
  22    -0.0000552032715001
  23     0.0000719126693863
  24    -0.0091424909806750
  25     0.0000235178503980
  26    -0.0031777154974505
  27     0.0159245160495774
  28     0.0000049165385649
  29     0.0913225943960614
  30     0.0097967939204632
  31    -0.0083694799335576
  32    -0.0078412217046965
  33    -0.0077806985864885
  34     0.0913118261390455
  35     0.0097946962341870
  36    -0.0083807829397310
  37     0.0078771938562401
  38     0.0077289988037195
  39     0.1138910303056628
  40     0.0133512198676903
  41     0.0094200284642217
  42     0.0086368637229556
  43    -0.0087502416156085
  44     0.1139616710785129
  45     0.0134397718577465
  46     0.0094076055966128
  47    -0.0086445855072436
  48     0.0087732120200189
 Ene=   -0.787165
 Spin=  Alpha
 Occup=    2.000000
   1     0.1637951324583341
   2    -0.3172268469886816
   3    -0.1474106503375901
   4    -0.0723235003960254
   5     0.0003486582838718
   6    -0.0004293323815332
   7    -0.0235623796579584
   8     0.0001076086678569
   9    -0.0001275020783518
  10    -0.0013788748374883
  11    -0.0000158779868711
  12    -0.0079548595801427
  13     0.0026016967934418
  14     0.0000253606857248
  15    -0.1320359086645817
  16     0.2765152779252296
  17     0.1349908360825275
  18    -0.2434269194438138
  19     0.0000633845197569
  20    -0.0002642461776905
  21    -0.0846082151847790
  22     0.0000170353957128
  23    -0.0000882712083781
  24     0.0043243837827938
  25    -0.0000196095129314
  26    -0.0097166726472896
  27    -0.0072190007861081
  28     0.0000147965840265
  29    -0.1659390181827090
  30    -0.0336750097957771
  31     0.0074983233311802
  32     0.0109323211226909
  33     0.0108417957715333
  34    -0.1659159794582603
  35    -0.0336701797304236
  36     0.0075144311743129
  37    -0.0109801817761903
  38    -0.0107790729337066
  39     0.2044698068276491
  40     0.0390598333644297
  41     0.0079630535929141
  42     0.0122788425277368
  43    -0.0124442839746146
  44     0.2044747753264261
  45     0.0390167561170566
  46     0.0079293784793391
  47    -0.0122842642138084
  48     0.0124628178526433
 Ene=   -0.594185
 Spin=  Alpha
 Occup=    2.000000
   1    -0.0003670394117596
   2     0.0005163204518815
   3     0.0018633874327844
   4     0.0072627434138519
   5    -0.0770705498560778
   6     0.0783625415355831
   7     0.0022458703625591
   8    -0.0246081722325643
   9     0.0250437518545668
  10     0.0001907681468450
  11    -0.0101904099348952
  12     0.0001741699986557
  13    -0.0003510527080017
  14     0.0100539561454646
  15     0.0007706281425459
  16    -0.0019927629200293
  17    -0.0005173740688056
  18    -0.0075561196797286
  19    -0.3095396972607798
  20     0.3139449649949416
  21    -0.0030220821029956
  22    -0.1376665469401091
  23     0.1396361128931232
  24     0.0000967779361094
  25    -0.0130455653397212
  26    -0.0000946904081831
  27    -0.0001858315918798
  28     0.0128730597722970
  29     0.0039076129655704
  30     0.0012297346186231
  31    -0.0000319230562227
  32    -0.0022848764778800
  33     0.0019049449655036
  34     0.0036689761319035
  35     0.0011588676292686
  36    -0.0000204081751705
  37    -0.0018814931733393
  38     0.0023027547970620
  39     0.3082566464297657
  40     0.1100483821996038
  41     0.0142995061432232
  42     0.0087182721459624
  43    -0.0088277284920481
  44    -0.3031201748733149
  45    -0.1083967185939587
  46    -0.0142704030279489
  47     0.0084591966384771
  48    -0.0085882273082089
 Ene=   -0.586237
 Spin=  Alpha
 Occup=    2.000000
   1    -0.0262015173398320
   2     0.0424031611470848
   3     0.1077300849025106
   4     0.3936415198493811
   5     0.0011076124143066
   6    -0.0006903173281100
   7     0.1247270452318568
   8     0.0002694592810611
   9    -0.0001270490626220
  10     0.0103259112849748
  11     0.0002399166571486
  12     0.0098698490032264
  13    -0.0181474190242106
  14    -0.0002700352365638
  15     0.0445897789206119
  16    -0.1137565640637637
  17    -0.0327677511357058
  18    -0.3910329778006962
  19     0.0058340539039152
  20    -0.0061991484384784
  21    -0.1609694826514343
  22     0.0026756740090140
  23    -0.0028263806036282
  24     0.0064658684667330
  25     0.0002638990032528
  26    -0.0060372358974148
  27    -0.0110294094373771
  28    -0.0002681577869906
  29     0.2011310793856639
  30     0.0661505021926436
  31    -0.0008333007015165
  32    -0.0102850043834961
  33    -0.0102745378274025
  34     0.2010126610972873
  35     0.0661146419700732
  36    -0.0008450080238391
  37     0.0104074859501368
  38     0.0101427972732893
  39     0.1299907707176198
  40     0.0400729993525906
  41    -0.0004645292214881
  42     0.0068861990264254
  43    -0.0069827229333953
  44     0.1416223763538263
  45     0.0443166078980144
  46     0.0000434906905901
  47    -0.0072055631086174
  48     0.0073069593075929
 Ene=   -0.559275
 Spin=  Alpha
 Occup=    2.000000
   1    -0.0000088118019900
   2     0.0000178330470510
   3     0.0000345431787930
   4     0.0003073660774463
   5    -0.2915201005321237
   6    -0.2875254583733727
   7     0.0001366670179912
   8    -0.1375485010278998
   9    -0.1356483843771317
  10    -0.0001589177538168
  11    -0.0058435090243840
  12    -0.0000054025230299
  13    -0.0000864760764230
  14    -0.0059102684134201
  15     0.0000102633844897
  16    -0.0000259393095316
  17    -0.0000098146707727
  18     0.0000049438506717
  19    -0.0924983743323336
  20    -0.0909728148952771
  21     0.0000077105538801
  22    -0.0468513017295413
  23    -0.0460904061174337
  24    -0.0000228186543809
  25    -0.0123808061106497
  26    -0.0000111360819726
  27     0.0000040779279279
  28    -0.0125413298459032
  29    -0.3014795932718948
  30    -0.1022644476092528
  31     0.0141635249782938
  32     0.0085826076790195
  33     0.0085733420870729
  34     0.3015650845225478
  35     0.1023008573460655
  36    -0.0141779556709474
  37     0.0086771062413495
  38     0.0084639101248165
  39     0.0001472309759146
  40     0.0000527974719502
  41     0.0000069426616199
  42    -0.0012683405305573
  43    -0.0012598069320894
  44    -0.0001033449269475
  45    -0.0000383136323213
  46    -0.0000051502221825
  47    -0.0012706382106346
  48    -0.0012575730388313
 Ene=    0.000000
 Spin=  Alpha
 Occup=    1.499628
   1     0.0005906630864490
   2    -0.0013213983009368
   3    -0.0016040482523901
   4    -0.0010183933446399
   5    -0.3734795488595578
   6     0.3785745450253160
   7    -0.0011749159618716
   8    -0.3970203495818012
   9     0.4023965373126769
  10    -0.0000047982063944
  11    -0.0079680675110644
  12    -0.0000391361492824
  13    -0.0000024804150920
  14     0.0078727903592907
  15    -0.0001743317911641
  16     0.0004252563820799
  17     0.0000125201406712
  18     0.0004008728829076
  19     0.0137425195772319
  20    -0.0140381272627084
  21    -0.0000983597636844
  22    -0.0088697242313324
  23     0.0089213612836244
  24     0.0000403646481275
  25     0.0352670218494588
  26    -0.0000107443777049
  27    -0.0000133581285637
  28    -0.0347914938556265
  29     0.0005153900752186
  30     0.0003044774535129
  31    -0.0000668580208169
  32    -0.0134695401737629
  33     0.0135840428224437
  34     0.0004201851984504
  35     0.0002529397261233
  36    -0.0000645585953163
  37    -0.0134042996628693
  38     0.0136469794339397
  39    -0.1726901447540049
  40    -0.2059894780477652
  41    -0.0001185126389050
  42    -0.0018479757041077
  43     0.0018713014078596
  44     0.1725778269419335
  45     0.2057009047834203
  46     0.0001235429638112
  47    -0.0018516996359936
  48     0.0018753497099571
 Ene=    0.000000
 Spin=  Alpha
 Occup=    0.500372
   1    -0.0000019448023787
   2     0.0000039144201977
   3     0.0000027389610212
   4    -0.0000372105355854
   5     0.0492744675100658
   6     0.0485140044199649
   7    -0.0000373011422593
   8     0.0464853137688884
   9     0.0456563442488205
  10     0.0001068562699920
  11     0.0290906429596247
  12     0.0000251813023697
  13     0.0000146926525305
  14     0.0294838771442267
  15     0.0000004347139098
  16    -0.0000005896934655
  17    -0.0000039858454841
  18     0.0003208796862223
  19    -0.4033365688774970
  20    -0.3977880967306970
  21     0.0003211044325276
  22    -0.4044016932786334
  23    -0.3988925735187434
  24     0.0000162173856577
  25    -0.0034172705698885
  26    -0.0000026019206876
  27     0.0000151250084116
  28    -0.0034426396510707
  29     0.1658500428909258
  30     0.1402888717532329
  31     0.0002814557594802
  32    -0.0025470339835953
  33    -0.0025646016412362
  34    -0.1658554017795973
  35    -0.1403021056097034
  36    -0.0002767623283704
  37    -0.0025920637197066
  38    -0.0025209153324405
  39     0.0000469501131583
  40     0.0000912210460089
  41     0.0000079078117201
  42    -0.0110467490270502
  43    -0.0108953203012810
  44    -0.0000455325346113
  45    -0.0000900871805785
  46     0.0000097011200382
  47    -0.0110460665393933
  48    -0.0108945588516858
 Ene=    0.195726
 Spin=  Alpha
 Occup=    0.000000
   1     0.0122851877610784
   2     0.0068847708955202
   3    -0.0803438306960602
   4     0.0546781798399581
   5     0.0001036444543373
   6    -0.0000579598711907
   7     0.1441443714037599
   8     0.0002493550353073
   9    -0.0001215594189533
  10    -0.0021677635404863
  11     0.0000134400965687
  12     0.0061096210352565
  13     0.0035869058111829
  14    -0.0000118995714609
  15    -0.1184456354495244
  16     0.1846969521177187
  17     2.2697392839808699
  18    -0.1751991337658976
  19    -0.0000966605702816
  20    -0.0000443013999498
  21    -0.7111481725783566
  22    -0.0001062708518913
  23    -0.0004743446579948
  24     0.0002660155608992
  25    -0.0000105809178866
  26    -0.0016389972247245
  27    -0.0004145866357547
  28     0.0000112308577101
  29     0.0306325581746365
  30    -0.0448671561900712
  31     0.0016973843136443
  32     0.0013709459913971
  33     0.0013216022999769
  34     0.0306335796193720
  35    -0.0448433738258010
  36     0.0016990395525357
  37    -0.0013400321395590
  38    -0.0013491746658428
  39    -0.0247007322952141
  40    -1.5689455017844378
  41    -0.0012460937933305
  42    -0.0039335539867517
  43     0.0039876476521372
  44    -0.0248977072195772
  45    -1.5678957104991185
  46    -0.0012326223875315
  47     0.0039383628353417
  48    -0.0039945322458473
 Ene=    0.231757
 Spin=  Alpha
 Occup=    0.000000
   1     0.1219243426657573
   2    -0.1655304775802942
   3    -2.7375405496877736
   4    -0.1250670075167480
   5     0.0004759985942789
   6    -0.0005523140245995
   7    -0.5081431485612942
   8     0.0023515259783660
   9    -0.0027178980794109
  10     0.0001175783186225
  11     0.0000092385720909
  12    -0.0067259380113102
  13    -0.0000241340645023
  14    -0.0000044367381115
  15    -0.0084737935389984
  16    -0.0483124909101329
  17     0.4833113772912160
  18     0.0370007322827678
  19     0.0010889334165564
  20    -0.0010822140023421
  21     0.2827570566920599
  22     0.0029121416902493
  23    -0.0027715013571074
  24     0.0047857961653583
  25    -0.0000441808226212
  26     0.0090178828120463
  27    -0.0085330412297089
  28     0.0000252543607179
  29     0.0053747230973084
  30     1.6539450631970662
  31    -0.0055016863236653
  32    -0.0040324667671583
  33    -0.0039583577740598
  34     0.0053755092642010
  35     1.6539968301255090
  36    -0.0055079806191006
  37     0.0040074779818699
  38     0.0039749958506402
  39    -0.0437968843544869
  40     0.0088755190216420
  41     0.0014156880936470
  42     0.0009467509787764
  43    -0.0009566300884896
  44    -0.0438579495032492
  45    -0.0039366275273465
  46     0.0014167104931631
  47    -0.0009218969324248
  48     0.0009323849596643
 Ene=    0.254062
 Spin=  Alpha
 Occup=    0.000000
   1    -0.0005086778046493
   2     0.0007901780525659
   3     0.0113077620796700
   4     0.0002324505076079
   5    -0.0304409704059307
   6     0.0307046470473524
   7     0.0020301974831642
   8    -0.3363576844832106
   9     0.3402653256363564
  10     0.0000062342264863
  11     0.0102007295562897
  12     0.0000520332560597
  13     0.0000044490223603
  14    -0.0100615884949601
  15    -0.0000126545380807
  16     0.0003730526661779
  17    -0.0014839012807114
  18     0.0000398997242441
  19     0.2416249412341553
  20    -0.2449896330683897
  21    -0.0004972936097284
  22     0.9873906562290760
  23    -1.0009541916119715
  24    -0.0000247219618187
  25     0.0061025060454348
  26    -0.0000474461062049
  27     0.0000538773934708
  28    -0.0060279735078952
  29     0.0002873574631862
  30    -0.0068648773941032
  31     0.0000237615225698
  32    -0.0013215758152740
  33     0.0013960818351518
  34     0.0002921046437670
  35    -0.0080480345499810
  36     0.0000300348838792
  37    -0.0013827844569786
  38     0.0013363186027381
  39    -0.0151020844662130
  40     1.7415858074295643
  41     0.0081128840116453
  42     0.0045363948562560
  43    -0.0045916937304959
  44     0.0155572441569585
  45    -1.7425620110089859
  46    -0.0081549019842171
  47     0.0045362492089702
  48    -0.0046046934527946
 Ene=    0.278409
 Spin=  Alpha
 Occup=    0.000000
   1     0.0000046289793334
   2    -0.0000079803482963
   3    -0.0002475180482890
   4     0.0001617711834325
   5    -0.2042102341492383
   6    -0.2014991249754882
   7     0.0008887020883396
   8    -1.1473266055180522
   9    -1.1323044951258512
  10    -0.0001181923704827
  11    -0.0037729379483494
  12    -0.0000072484714093
  13    -0.0000615148604374
  14    -0.0038164060542422
  15    -0.0000002630255603
  16    -0.0000047945301181
  17     0.0000549667138708
  18     0.0000159416065079
  19    -0.0227161735877267
  20    -0.0222428386487982
  21    -0.0002473393861232
  22     0.3296164738833638
  23     0.3259519626056372
  24     0.0000420668159862
  25    -0.0112949874747768
  26    -0.0000078681176035
  27     0.0000416509247014
  28    -0.0114413308092594
  29    -0.0245015112443594
  30     1.8960548996563535
  31    -0.0129603468762802
  32    -0.0068461772992007
  33    -0.0068118981804151
  34     0.0244874144381073
  35    -1.8957827004163443
  36     0.0129705780869940
  37    -0.0068907091560931
  38    -0.0067423566324248
  39     0.0000092199199378
  40    -0.0007026247830888
  41    -0.0000046012265003
  42    -0.0006178706292423
  43    -0.0006058538262927
  44    -0.0000154619985434
  45     0.0006809812323764
  46     0.0000059108646657
  47    -0.0006755097255708
  48    -0.0006624289320652
 Ene=    0.467791
 Spin=  Alpha
 Occup=    0.000000
   1    -0.0780324391139486
   2     0.1707644980560349
   3     4.5497563959700296
   4    -0.2035090934859395
   5     0.0000521910164280
   6    -0.0002182237776790
   7    -3.2531958525769515
   8    -0.0005910173626943
   9    -0.0020603807065650
  10     0.0045026892839805
  11    -0.0000112148345174
  12     0.0173322437549392
  13    -0.0082653283315635
  14    -0.0000167777923607
  15     0.0712727815360397
  16    -0.0900086166332510
  17    -4.6203009126046419
  18    -0.1194432429133696
  19    -0.0000023755287686
  20    -0.0000967677642706
  21    -3.3238189728097147
  22    -0.0013636248138129
  23    -0.0012909867576703
  24    -0.0138324555299721
  25    -0.0000911591402576
  26     0.0093987546922334
  27     0.0236990303718739
  28     0.0001200375052581
  29     0.0953024966207253
  30     0.2351566545518423
  31    -0.0055350367540294
  32     0.0027753447913682
  33     0.0027053636579422
  34     0.0953051918297654
  35     0.2350998510504597
  36    -0.0055319538784713
  37    -0.0027474131480848
  38    -0.0027426852140991
  39    -0.0518876362617645
  40    -0.2802497392306650
  41    -0.0184137270035784
  42     0.0027253096395563
  43    -0.0027780110132115
  44    -0.0536005385956240
  45    -0.2763192719104869
  46    -0.0182177261281831
  47    -0.0027200443085589
  48     0.0027428841339712
 Ene=    0.563907
 Spin=  Alpha
 Occup=    0.000000
   1     0.0753329198462635
   2    -0.6926571110320591
   3     0.6508003637929618
   4     0.3514285766008732
   5     0.0000613779217322
   6     0.0002216369487878
   7    -0.6608867871500319
   8     0.0001840699855702
   9    -0.0007310366539111
  10     0.0268745799600079
  11    -0.0001038300587419
  12    -0.0057916870436059
  13    -0.0463962926993324
  14     0.0000321388188349
  15     0.1213751404205725
  16    -0.9948525120828501
  17     1.0899711265016705
  18    -0.3866604768730368
  19     0.0002473443907501
  20    -0.0005589685895371
  21     0.5741401159376598
  22    -0.0009292363083815
  23     0.0014095265194252
  24     0.0267508284879476
  25     0.0000270764671787
  26     0.0135111349201259
  27    -0.0467109858847944
  28    -0.0001120692038383
  29     0.0508427438261626
  30    -0.2541409384775906
  31    -0.0357519610814177
  32     0.0016818147107371
  33     0.0016265268602881
  34     0.0508281797907832
  35    -0.2541198903104737
  36    -0.0357525591115231
  37    -0.0016806194179759
  38    -0.0016888846712478
  39    -0.0681095238241238
  40    -0.2017922886501960
  41     0.0341331562110987
  42    -0.0047834632000102
  43     0.0048777254971644
  44    -0.0660029077066490
  45    -0.2037007046522709
  46     0.0340903521731031
  47     0.0047538658778692
  48    -0.0047919540223746
 Ene=    0.685660
 Spin=  Alpha
 Occup=    0.000000
   1     0.0345683040388980
   2    -0.4601733330598917
   3     2.3762226972078158
   4    -0.1188646468513794
   5     0.0011609196439198
   6    -0.0012976003205151
   7     0.4510908517581363
   8     0.0001503886310332
   9     0.0003386067383018
  10    -0.0057674710223545
  11    -0.0005857260929543
  12    -0.0642236587113838
  13     0.0116913874873279
  14     0.0006476035232692
  15     0.0522266674310002
  16    -0.5090823620797404
  17     1.1434404873830737
  18     0.1262273586322496
  19    -0.0000039118147765
  20     0.0001715399192206
  21    -1.3879997792973100
  22    -0.0067663943322491
  23     0.0056483484505107
  24    -0.0056825883420962
  25     0.0010248354287037
  26     0.0577172258648267
  27     0.0082157700356517
  28    -0.0010439734028919
  29    -0.5574908628470510
  30    -0.4036679941000449
  31     0.0147284542958409
  32    -0.0217358116623749
  33    -0.0217170576368001
  34    -0.5575248803591418
  35    -0.4035025721809687
  36     0.0146934836139389
  37     0.0220117520278845
  38     0.0214561480886067
  39    -0.5481254155127114
  40    -0.5045749460462462
  41    -0.0291118679798349
  42     0.0169749354780818
  43    -0.0172376737839922
  44    -0.5315503750892009
  45    -0.5108723748844527
  46    -0.0303445617724926
  47    -0.0170004529254873
  48     0.0172199880150627
 Ene=    0.710152
 Spin=  Alpha
 Occup=    0.000000
   1     0.0630863634924023
   2    -0.8538615784887901
   3     3.6911866349761771
   4    -0.1712054313815641
   5     0.0032712460868340
   6    -0.0034813456539119
   7    -0.6443905403905144
   8     0.0017895418347619
   9    -0.0021374900107041
  10     0.0117549810575568
  11    -0.0008846315480573
  12    -0.0689633306856982
  13    -0.0185024519801848
  14     0.0008841534402334
  15    -0.0429467581304159
  16     0.6842251685667591
  17    -3.8529294454286709
  18    -0.3004636484524529
  19     0.0002058341455345
  20    -0.0002422680259839
  21    -0.1858477126027381
  22    -0.0141631348688186
  23     0.0139248311325135
  24    -0.0044767728691203
  25     0.0015612040941769
  26    -0.0764214447587948
  27     0.0098678859972132
  28    -0.0014579315729830
  29    -0.4728878974065978
  30    -0.2756862625217950
  31     0.0160082800269064
  32    -0.0051949107459691
  33    -0.0057644794606135
  34    -0.4728547829770950
  35    -0.2756130298580380
  36     0.0159972431157254
  37     0.0058435385316986
  38     0.0051211489500112
  39     0.4834757469554800
  40     0.4180188067224613
  41     0.0362121485676813
  42    -0.0013744502953424
  43     0.0014237069667688
  44     0.5115131305378219
  45     0.4116223499714455
  46     0.0341244513414214
  47     0.0012251123716562
  48    -0.0012081588373857
 Ene=    0.720278
 Spin=  Alpha
 Occup=    0.000000
   1    -0.0000123149337187
   2     0.0001600172516483
   3    -0.0006997285098234
   4     0.0000438316226580
   5    -0.0138230985233546
   6    -0.0141625848720515
   7    -0.0000436799897462
   8     0.1365211693136877
   9     0.1347843247030676
  10    -0.0000365731360627
  11    -0.0388112438616556
  12    -0.0000175675578125
  13     0.0000444122335083
  14    -0.0393265570816675
  15     0.0000036543981713
  16    -0.0000771733818036
  17     0.0005245262384215
  18    -0.0005347426194917
  19     0.7228419548442511
  20     0.7128708010542243
  21     0.0007723443298369
  22    -0.8641682833696717
  23    -0.8516477886352289
  24     0.0000205723274635
  25     0.0153361033298420
  26     0.0000216016916377
  27    -0.0000152070504431
  28     0.0155004335660737
  29    -0.0520732975689590
  30     0.2576506115738355
  31     0.0255554961056826
  32    -0.0082555156868485
  33    -0.0081796812631344
  34     0.0522720455037874
  35    -0.2574973229415236
  36    -0.0255515051935894
  37    -0.0082768377400491
  38    -0.0082016438999359
  39    -0.0003680131215832
  40    -0.0000072613011741
  41     0.0000171330426004
  42     0.0155711855854219
  43     0.0153621013959587
  44     0.0002659247482520
  45    -0.0000741366983572
  46    -0.0000505636488814
  47     0.0155867625412615
  48     0.0153746053168456
 Ene=    0.725795
 Spin=  Alpha
 Occup=    0.000000
   1    -0.0022772559987688
   2     0.0236107083358124
   3    -0.0862012260781429
   4     0.0044497392070888
   5     0.2674847168999687
   6    -0.2711836087465992
   7     0.0020248040852609
   8     0.1796978080177432
   9    -0.1809390882222155
  10    -0.0002172485461901
  11    -0.0469612977372536
  12     0.0018072369013612
  13     0.0002532450098025
  14     0.0462494798336889
  15     0.0003257062013685
  16    -0.0061351554161603
  17     0.0477975824210734
  18     0.0039459633619532
  19    -0.0152620596414581
  20     0.0146880246195476
  21     0.0111287366684518
  22    -0.8236844573977147
  23     0.8354728954692275
  24     0.0001806829616243
  25     0.0873787135774641
  26     0.0005143961472218
  27    -0.0001869010605584
  28    -0.0861033102469717
  29     0.0118144426763171
  30     0.0117714232523037
  31    -0.0006173635769621
  32     0.0359353044701104
  33    -0.0356650724614119
  34     0.0128355106996513
  35     0.0120869561553478
  36    -0.0005058827443188
  37     0.0351945519510570
  38    -0.0363918138520057
  39    -0.8274546589730819
  40     0.1432120989209567
  41     0.0677652931627561
  42    -0.0042244515023180
  43     0.0042760360413303
  44     0.8223591486243482
  45    -0.1487485204237455
  46    -0.0687347309389770
  47    -0.0039031890019843
  48     0.0038392528713007
 Ene=    0.779597
 Spin=  Alpha
 Occup=    0.000000
   1    -0.0006988398138911
   2     0.0019285543161245
   3     0.0020126631484639
   4     0.0014124127675739
   5     0.6674711166598443
   6    -0.6764053418427203
   7     0.0013909495472807
   8    -0.8747489515324223
   9     0.8855696575623889
  10     0.0000721039510230