[Molden Format]
[Atoms] Angs
 c       1                    6  7.595000000000e-01  0.000000000000e+00 -1.000000000000e-03
 c       2                    6 -6.125000000000e-01 -5.000000000000e-04 -1.600000000000e-03
 h       3                    1  1.316000000000e+00  6.711000000000e-01  6.662000000000e-01
 h       4                    1  1.317100000000e+00 -6.757000000000e-01 -6.627000000000e-01
 h       5                    1 -1.289500000000e+00 -6.386000000000e-01  6.449000000000e-01
 h       6                    1 -1.288000000000e+00  6.378000000000e-01 -6.494000000000e-01
[GTO]
1
 s           5
      1.238401693800e+03      5.517365048110e-03
      1.862900499200e+02      4.108882855595e-02
      4.225117634600e+01      1.822538212649e-01
      1.167655793200e+01      4.682845943743e-01
      3.593050648200e+00      4.457581733600e-01
 s           1
      4.024514736300e-01      1.000000000000e+00
 s           1
      1.309018266800e-01      1.000000000000e+00
 p           3
      9.468097062100e+00      5.688833201104e-02
      2.010354514200e+00      3.129405933647e-01
      5.477100470700e-01      7.606501650914e-01
 p           1
      1.526861379500e-01      1.000000000000e+00
 d           1
      8.000000000000e-01      1.000000000000e+00

2
 s           5
      1.238401693800e+03      5.517365048110e-03
      1.862900499200e+02      4.108882855595e-02
      4.225117634600e+01      1.822538212649e-01
      1.167655793200e+01      4.682845943743e-01
      3.593050648200e+00      4.457581733600e-01
 s           1
      4.024514736300e-01      1.000000000000e+00
 s           1
      1.309018266800e-01      1.000000000000e+00
 p           3
      9.468097062100e+00      5.688833201104e-02
      2.010354514200e+00      3.129405933647e-01
      5.477100470700e-01      7.606501650914e-01
 p           1
      1.526861379500e-01      1.000000000000e+00
 d           1
      8.000000000000e-01      1.000000000000e+00

3
 s           3
      1.301070100000e+01      3.348548481299e-02
      1.962257200000e+00      2.347218708812e-01
      4.445379600000e-01      8.137702852596e-01
 s           1
      1.219496200000e-01      1.000000000000e+00
 p           1
      8.000000000000e-01      1.000000000000e+00

4
 s           3
      1.301070100000e+01      3.348548481299e-02
      1.962257200000e+00      2.347218708812e-01
      4.445379600000e-01      8.137702852596e-01
 s           1
      1.219496200000e-01      1.000000000000e+00
 p           1
      8.000000000000e-01      1.000000000000e+00

5
 s           3
      1.301070100000e+01      3.348548481299e-02
      1.962257200000e+00      2.347218708812e-01
      4.445379600000e-01      8.137702852596e-01
 s           1
      1.219496200000e-01      1.000000000000e+00
 p           1
      8.000000000000e-01      1.000000000000e+00

6
 s           3
      1.301070100000e+01      3.348548481299e-02
      1.962257200000e+00      2.347218708812e-01
      4.445379600000e-01      8.137702852596e-01
 s           1
      1.219496200000e-01      1.000000000000e+00
 p           1
      8.000000000000e-01      1.000000000000e+00


[5D]
[7F]
[9G]
[MO]
 Ene=  -11.385872
 Spin=  Alpha
 Occup=    2.000000
   1     0.0025286934910441
   2    -0.0021426811798016
   3     0.0054326233073602
   4     0.0013728786427082
   5     0.0000012544819115
   6    -0.0000002382675401
   7    -0.0022856546046942
   8     0.0000008987360694
   9    -0.0000028505780721
  10     0.0002230308053573
  11    -0.0000011690245348
  12    -0.0002236532169252
  13    -0.0003803106310544
  14     0.0000006996325562
  15     0.9912222650439342
  16     0.0339012618206606
  17    -0.0221970708183628
  18    -0.0010760579084390
  19     0.0000006007218750
  20    -0.0000014861284989
  21    -0.0005519640172086
  22    -0.0000026270075586
  23     0.0000022508910358
  24    -0.0006602661566712
  25     0.0000007664079820
  26    -0.0014154905423917
  27     0.0011830170222493
  28     0.0000022510747330
  29     0.0002176534130788
  30     0.0005623172031640
  31    -0.0004428854258643
  32    -0.0001465753528953
  33    -0.0001456962673002
  34     0.0002175481695848
  35     0.0005622309926272
  36    -0.0004430788507995
  37     0.0001472632680450
  38     0.0001442329243449
  39    -0.0020870855582704
  40     0.0045871189230748
  41    -0.0007190419885219
  42    -0.0009743558316029
  43     0.0009873608030612
  44    -0.0020852024996395
  45     0.0045888938405138
  46    -0.0007165372530267
  47     0.0009738653928873
  48    -0.0009880345685715
 Ene=  -11.133307
 Spin=  Alpha
 Occup=    2.000000
   1     0.9906390829190397
   2     0.0361340249440708
   3    -0.0234435209066946
   4    -0.0003446627300653
   5    -0.0000148269050487
   6     0.0000148274579124
   7     0.0010492566543624
   8     0.0000167154158907
   9    -0.0000163571434716
  10    -0.0004002176134094
  11     0.0000045761815695
  12     0.0011495279441125
  13     0.0006623467231626
  14    -0.0000043217252785
  15    -0.0023035775201445
  16    -0.0024145423648096
  17     0.0063345398851803
  18    -0.0016168697063987
  19    -0.0000007095635685
  20    -0.0000005679491802
  21     0.0019008282375575
  22    -0.0000092176496642
  23     0.0000108728147837
  24     0.0003833608043613
  25    -0.0000005552618449
  26     0.0000668647785965
  27    -0.0006658806120991
  28    -0.0000005535920119
  29    -0.0023601636147480
  30     0.0051034113615763
  31     0.0006353532311851
  32     0.0008721058167959
  33     0.0008696161574281
  34    -0.0023599615060428
  35     0.0051028124936121
  36     0.0006368831186688
  37    -0.0008809047474058
  38    -0.0008599599596503
  39     0.0000363995072655
  40     0.0001639841816086
  41     0.0003721138493729
  42     0.0000834590910525
  43    -0.0000843206344986
  44     0.0000405199566999
  45     0.0001787588858490
  46     0.0003741791270642
  47    -0.0000836270703762
  48     0.0000850989109317
 Ene=   -1.021346
 Spin=  Alpha
 Occup=    2.000000
   1     0.1582892035779512
   2    -0.2859639559912334
   3    -0.1098231654589351
   4     0.1179809474637369
   5     0.0001614323029398
   6    -0.0000717471561721
   7     0.0316559004440818
   8     0.0000240735812158
   9     0.0000038797296526
  10     0.0081938418870114
  11    -0.0000006879444531
  12    -0.0020093693659409
  13    -0.0141417532487530
  14    -0.0000201571826064
  15     0.2343832497727452
  16    -0.4929111998355082
  17    -0.1208448208429416
  18    -0.0894255560517057
  19    -0.0000210093617778
  20    -0.0000514636323124
  21    -0.0045575469225240
  22     0.0000728671635361
  23    -0.0000788111232190
  24     0.0087645917206269
  25    -0.0000232192939069
  26     0.0037706280121347
  27    -0.0152901139969996
  28    -0.0000046255574236
  29    -0.0750787120056314
  30    -0.0078922795412035
  31     0.0076009825175901
  32     0.0065743061450880
  33     0.0065221345830908
  34    -0.0750703248246839
  35    -0.0078905920656538
  36     0.0076104058228768
  37    -0.0066020747619862
  38    -0.0064802412842917
  39    -0.1325561921308346
  40    -0.0142667972644054
  41    -0.0102660851624760
  42    -0.0101280521684834
  43     0.0102628358156619
  44    -0.1326071592369275
  45    -0.0143463678160517
  46    -0.0102488483583425
  47     0.0101362261169767
  48    -0.0102876664010618
 Ene=   -0.799271
 Spin=  Alpha
 Occup=    2.000000
   1     0.1721483020580357
   2    -0.3202284245389430
   3    -0.1359802093289880
   4    -0.0128783882002598
   5     0.0003077779073761
   6    -0.0003350392396613
   7    -0.0082341850291084
   8     0.0000752235181422
   9    -0.0000813008553604
  10     0.0006780852875742
  11    -0.0000114565080048
  12    -0.0066999150752236
  13    -0.0009913445110375
  14     0.0000146566881303
  15    -0.1031766193448853
  16     0.2227441941592956
  17     0.0982115045915342
  18    -0.3167477350096677
  19     0.0000466805723448
  20    -0.0003058407985553
  21    -0.1166938132069594
  22     0.0000203311879727
  23    -0.0001172563785486
  24     0.0051431601789578
  25    -0.0000191185570833
  26    -0.0104478282448460
  27    -0.0086252095901608
  28     0.0000127744076548
  29    -0.1477228631570874
  30    -0.0302489542606513
  31     0.0079760199767377
  32     0.0101115038850360
  33     0.0100244835444018
  34    -0.1477044750429144
  35    -0.0302450267808527
  36     0.0079908283526122
  37    -0.0101499352489218
  38    -0.0099706798398028
  39     0.2059626821484805
  40     0.0364778543558492
  41     0.0068327466523632
  42     0.0124014642215262
  43    -0.0125714177095240
  44     0.2059408129301896
  45     0.0364256770446269
  46     0.0067925632511545
  47    -0.0124060059433909
  48     0.0125872629682161
 Ene=   -0.631380
 Spin=  Alpha
 Occup=    2.000000
   1     0.0000028578295072
   2     0.0000576309339381
   3    -0.0002301080470288
   4    -0.0008467118061557
   5     0.0853847933180720
   6    -0.0865878746663312
   7    -0.0001258380095684
   8     0.0335316167763251
   9    -0.0340302854533441
  10    -0.0000269483303754
  11     0.0096835616048111
  12    -0.0000059866433054
  13     0.0000621908121612
  14    -0.0095477616800386
  15    -0.0001186445610373
  16     0.0003254305987731
  17     0.0001582005073479
  18     0.0012053783657368
  19     0.3224252529032390
  20    -0.3269264454986646
  21     0.0004321987698280
  22     0.1300607017163470
  23    -0.1318656604741038
  24     0.0000147465105446
  25     0.0147701380569699
  26    -0.0000067913917149
  27    -0.0000017346787463
  28    -0.0145736570726874
  29    -0.0006389143497037
  30    -0.0001645479331799
  31     0.0000194562224266
  32     0.0028510291231007
  33    -0.0028064366740367
  34    -0.0006112091314052
  35    -0.0001794838134600
  36     0.0000169876600381
  37     0.0027690731823535
  38    -0.0028869644156778
  39    -0.3023364621385138
  40    -0.0962681218322243
  41    -0.0135283367914402
  42    -0.0094133255366770
  43     0.0095349676744411
  44     0.3017591724100394
  45     0.0959992398899016
  46     0.0134963343783938
  47    -0.0093921180540113
  48     0.0095354263762774
 Ene=   -0.578327
 Spin=  Alpha
 Occup=    2.000000
   1     0.0522854698748488
   2    -0.0949507971096782
   3    -0.1601493356755546
   4    -0.3738686290727969
   5     0.0001469893935173
   6    -0.0005215869513460
   7    -0.0999968924123361
   8     0.0001133320738433
   9    -0.0002215672992386
  10    -0.0102722550163412
  11    -0.0000870466195910
  12    -0.0103690436793882
  13     0.0180760151084160
  14     0.0001211129610601
  15    -0.0634112803704032
  16     0.1630493640074434
  17     0.0767789199051257
  18     0.3779206722927216
  19    -0.0008650001639178
  20     0.0011603276716405
  21     0.1692390400595302
  22    -0.0004342316897864
  23     0.0005634469120859
  24    -0.0046395996043599
  25    -0.0000612767235695
  26     0.0051313692492666
  27     0.0078962779375347
  28     0.0000655175997297
  29    -0.2224343194299319
  30    -0.0767442406807229
  31     0.0020842279830765
  32     0.0114254695163188
  33     0.0113412754188154
  34    -0.2223594587931192
  35    -0.0767224581216248
  36     0.0020993479381264
  37    -0.0114882645766742
  38    -0.0112707167508654
  39    -0.1075258187783407
  40    -0.0327427737090015
  41     0.0017265146765366
  42    -0.0057336144308358
  43     0.0058151373529148
  44    -0.1092417341192687
  45    -0.0333405634060650
  46     0.0016821461138303
  47     0.0057797215783069
  48    -0.0058593748245727
 Ene=   -0.529682
 Spin=  Alpha
 Occup=    2.000000
   1    -0.0000082123561003
   2     0.0000171980046643
   3     0.0000296003441361
   4     0.0002625402094320
   5    -0.2785092635308699
   6    -0.2747454676037988
   7     0.0001252142289553
   8    -0.1409033080132118
   9    -0.1389812318659291
  10    -0.0001734838073478
  11    -0.0028540366771589
  12    -0.0000039791577108
  13    -0.0000978279387122
  14    -0.0028949744994607
  15     0.0000079763028683
  16    -0.0000208952755636
  17    -0.0000112311395291
  18     0.0000473756889462
  19    -0.1059547994725155
  20    -0.1044583575750410
  21     0.0000328820824499
  22    -0.0639534795880710
  23    -0.0630986258817615
  24    -0.0000280476442284
  25    -0.0137125450075766
  26    -0.0000117256874745
  27     0.0000047560745548
  28    -0.0138929734154738
  29    -0.2942543338508706
  30    -0.1046233754078936
  31     0.0151517626282549
  32     0.0076104464574232
  33     0.0076032884200492
  34     0.2943102162981402
  35     0.1046526071375086
  36    -0.0151645637067412
  37     0.0076931159205954
  38     0.0075008465141784
  39     0.0000460046731345
  40     0.0000361121240208
  41     0.0000020018263045
  42    -0.0010507095783774
  43    -0.0010387353711566
  44    -0.0000275009557537
  45    -0.0000298334843207
  46    -0.0000007692208182
  47    -0.0010513045791388
  48    -0.0010373553535994
 Ene=   -0.231276
 Spin=  Alpha
 Occup=    2.000000
   1    -0.0005679346917975
   2     0.0012820937888047
   3     0.0011508799904772
   4     0.0009363333362928
   5     0.3598474949224278
   6    -0.3646761654273863
   7     0.0012635952194216
   8     0.3955048548722752
   9    -0.4008257769902409
  10    -0.0000097694057109
  11     0.0081202908092441
  12     0.0000883576417207
  13     0.0000269617207864
  14    -0.0079781095934413
  15     0.0001685150693594
  16    -0.0004339295486437
  17     0.0002296560648576
  18    -0.0003459160777939
  19    -0.0130160030043268
  20     0.0128194632008895
  21     0.0002910245042719
  22     0.0300739594249184
  23    -0.0309744797758420
  24    -0.0000478249245986
  25    -0.0383259355121828
  26     0.0000048756437977
  27     0.0000215991027893
  28     0.0378012268105600
  29    -0.0003515858387589
  30    -0.0000920140451937
  31     0.0000699263317696
  32     0.0146689123834947
  33    -0.0147984779452056
  34    -0.0005201152116603
  35    -0.0002760016245303
  36     0.0000656437908946
  37     0.0145976527624255
  38    -0.0148673969362040
  39     0.1874202864103225
  40     0.2409363265945993
  41    -0.0002886760143729
  42     0.0022746537095387
  43    -0.0023178767641064
  44    -0.1873230798683751
  45    -0.2406002656998242
  46     0.0002814415948563
  47     0.0022795111409148
  48    -0.0023224149579000
 Ene=    0.014804
 Spin=  Alpha
 Occup=    0.000000
   1    -0.0000022163352810
   2     0.0000032845209589
   3     0.0000170547988636
   4    -0.0000350372097010
   5     0.0462782939028278
   6     0.0459719567124586
   7    -0.0000629830767442
   8     0.0807065005854778
   9     0.0799875129502659
  10     0.0000981845638668
  11     0.0222882840116384
  12     0.0000194937813967
  13     0.0000205206379936
  14     0.0225925265173884
  15     0.0000004263517690
  16    -0.0000003256926584
  17    -0.0000080953760461
  18     0.0002701468156705
  19    -0.3395608131079350
  20    -0.3349097500497099
  21     0.0003779730845120
  22    -0.4772559691389915
  23    -0.4707236289417713
  24     0.0000118794153294
  25     0.0046824782021164
  26     0.0000037686032285
  27    -0.0000004300018239
  28     0.0047240253552414
  29     0.1594761267884205
  30     0.1799663198578939
  31     0.0025917581271861
  32    -0.0017993142930367
  33    -0.0017626990796144
  34    -0.1594819274743981
  35    -0.1799965072527795
  36    -0.0025888606675881
  37    -0.0018039591215785
  38    -0.0017626221653630
  39    -0.0000743578780873
  40    -0.0000979006011324
  41     0.0000097178912390
  42    -0.0118340853632654
  43    -0.0116693181459896
  44     0.0000762266302781
  45     0.0001005366138258
  46     0.0000091036290453
  47    -0.0118285532155218
  48    -0.0116637937930195
 Ene=    0.177958
 Spin=  Alpha
 Occup=    0.000000
   1     0.0125295399832998
   2    -0.0014803379953830
   3    -0.0464496266778811
   4     0.0525645604565192
   5     0.0001188788556221
   6    -0.0000757682331678
   7     0.1183805079237605
   8     0.0003014180860881
   9    -0.0001986277908234
  10    -0.0014228499182386
  11     0.0000134506455576
  12     0.0052725040500139
  13     0.0023204241921502
  14    -0.0000133113037518
  15    -0.1180836489554365
  16     0.1986358970814985
  17     2.1770340296156485
  18    -0.1948444998779882
  19    -0.0001507042426712
  20    -0.0000058923179804
  21    -0.6964477094718434
  22    -0.0002493416731254
  23    -0.0003173316416075
  24    -0.0001235738450681
  25    -0.0000122311759436
  26     0.0011275236147868
  27     0.0001854676984659
  28     0.0000116223038006
  29     0.0290826521900751
  30    -0.0389623370051647
  31     0.0015291941625531
  32     0.0012726516378898
  33     0.0012271746718532
  34     0.0290833811141557
  35    -0.0389454047737174
  36     0.0015307776709330
  37    -0.0012440251530568
  38    -0.0012529146566858
  39    -0.0361453408650790
  40    -1.5407922510171637
  41    -0.0005038163525483
  42    -0.0029405538008233
  43     0.0029803770164568
  44    -0.0363681882721957
  45    -1.5392185308993882
  46    -0.0004900538910963
  47     0.0029447302194457
  48    -0.0029854568697350
 Ene=    0.236646
 Spin=  Alpha
 Occup=    0.000000
   1     0.0015833679339279
   2    -0.0020399160102733
   3    -0.0357326568012759
   4    -0.0016918848930345
   5    -0.0475047280274610
   6     0.0480935000726414
   7    -0.0062126888492696
   8    -0.3283297132916226
   9     0.3326031295326287
  10     0.0000098075326203
  11     0.0083571749228131
  12    -0.0001064361233086
  13    -0.0000004533857125
  14    -0.0082433514690529
  15    -0.0001637529498121
  16    -0.0006048894619241
  17     0.0080335578703291
  18     0.0006410401390937
  19     0.2539851472217595
  20    -0.2575284250225643
  21     0.0046794418955992
  22     0.9508355670245350
  23    -0.9640375470441804
  24     0.0000715681290079
  25     0.0078933077281287
  26     0.0001254049235547
  27    -0.0001147885955836
  28    -0.0077871183114209
  29     0.0002562153854747
  30     0.0206321936650484
  31    -0.0000843584025058
  32    -0.0023591690799608
  33     0.0022976897717605
  34     0.0002536315594177
  35     0.0202070551512199
  36    -0.0000807016049761
  37    -0.0022674206089764
  38     0.0023886598671958
  39    -0.0088084382199301
  40     1.7079225904787745
  41     0.0060725435416197
  42     0.0043609624467433
  43    -0.0044162830439345
  44     0.0076775742404696
  45    -1.7092529608676024
  46    -0.0060497630319844
  47     0.0043314825154876
  48    -0.0043962321505257
 Ene=    0.243717
 Spin=  Alpha
 Occup=    0.000000
   1    -0.1230052785875133
   2     0.1569101977742496
   3     2.8511664096199794
   4     0.1094878314331755
   5    -0.0011854557483552
   6     0.0012585163273504
   7     0.4817450518049569
   8    -0.0079012200784858
   9     0.0083117550111478
  10    -0.0002321923366180
  11     0.0001476154657979
  12     0.0094903342915753
  13     0.0001492163052664
  14    -0.0001523297358543
  15     0.0070337940476138
  16     0.0668707425063261
  17    -0.5819117954809988
  18    -0.0362186746142685
  19     0.0031004181045709
  20    -0.0031629147380588
  21    -0.3331018959540443
  22     0.0132175191549949
  23    -0.0136143618086073
  24    -0.0059748989566762
  25     0.0001754180983792
  26    -0.0103363627122260
  27     0.0106291362035713
  28    -0.0001508074457784
  29     0.0025324353067917
  30    -1.6665068099866716
  31     0.0062719731094668
  32     0.0045547999369673
  33     0.0045388503282741
  34     0.0025349153442915
  35    -1.6665685333967715
  36     0.0062794135899690
  37    -0.0045953828980227
  38    -0.0044875901806624
  39     0.0471839163508099
  40     0.0172858676922426
  41    -0.0016409153588031
  42    -0.0007542568584214
  43     0.0007618858045755
  44     0.0475315266668719
  45    -0.0275616608793217
  46    -0.0018659025260466
  47     0.0008784752364733
  48    -0.0008890531794606
 Ene=    0.290038
 Spin=  Alpha
 Occup=    0.000000
   1     0.0000047103081784
   2    -0.0000079445993694
   3    -0.0002525697508004
   4     0.0001551254171131
   5    -0.1954469855893649
   6    -0.1928442073117831
   7     0.0009150965440637
   8    -1.1815190510332296
   9    -1.1659008783043694
  10    -0.0001456774578643
  11    -0.0030990726118644
  12    -0.0000072079371199
  13    -0.0000785538452366
  14    -0.0031366707018950
  15     0.0000002034155005
  16    -0.0000072731493159
  17     0.0000559951437213
  18     0.0000252133302812
  19    -0.0347822287494786
  20    -0.0342351945340579
  21    -0.0002695439254187
  22     0.3620852139730782
  23     0.3575808952686871
  24     0.0000462700638278
  25    -0.0136363958587905
  26    -0.0000095723895323
  27     0.0000477295943898
  28    -0.0138174318511151
  29    -0.0298440937395170
  30     1.9084621703407465
  31    -0.0143880856955144
  32    -0.0070896907688795
  33    -0.0070606402826182
  34     0.0298314366937694
  35    -1.9081889022479084
  36     0.0143985279095593
  37    -0.0071414621224147
  38    -0.0069814758176957
  39     0.0000017326444956
  40    -0.0003432188616888
  41    -0.0000022667385925
  42    -0.0006916034828210
  43    -0.0006803582633032
  44    -0.0000086684760568
  45     0.0003268065298621
  46     0.0000037419746946
  47    -0.0007552030790941
  48    -0.0007427806829565
 Ene=    0.467093
 Spin=  Alpha
 Occup=    0.000000
   1    -0.0795496213542168
   2     0.1860294902269706
   3     4.5649304477711485
   4    -0.2307430284716640
   5     0.0000148148313845
   6    -0.0002020953701672
   7    -3.1961398331086985
   8    -0.0006468498790418
   9    -0.0019518089476674
  10     0.0003289775108635
  11    -0.0000168143543458
  12     0.0158586675257028
  13    -0.0010009129537125
  14     0.0000016044618199
  15     0.0652732514675686
  16    -0.0613652784946082
  17    -4.5911351126002584
  18    -0.0739484437283202
  19     0.0000278871098432
  20    -0.0000912297330498
  21    -3.4057341245591983
  22    -0.0012656422326503
  23    -0.0014580526925149
  24    -0.0184438026551918
  25    -0.0000938268136571
  26     0.0113381272221843
  27     0.0316340151515855
  28     0.0001337744944235
  29     0.0642002577645687
  30     0.2516147260881324
  31    -0.0020425548347861
  32     0.0016186162813892
  33     0.0015753352386695
  34     0.0642024487681550
  35     0.2515646275266294
  36    -0.0020410367450740
  37    -0.0016009532105201
  38    -0.0015969797935839
  39    -0.0818558834301858
  40    -0.2905194628688143
  41    -0.0238985245805457
  42     0.0044372567013512
  43    -0.0045163160925627
  44    -0.0837403839713688
  45    -0.2865479064317948
  46    -0.0236805198970374
  47    -0.0044256135704815
  48     0.0044658611016839
 Ene=    0.561469
 Spin=  Alpha
 Occup=    0.000000
   1     0.0608883737043626
   2    -0.6276151456325986
   3     0.7288346137812109
   4     0.3046905376697676
   5     0.0001266181336443
   6     0.0001178107721329
   7    -0.7116786335242252
   8     0.0001716410441141
   9    -0.0007577112723039
  10     0.0262846839598071
  11    -0.0001091221998229
  12    -0.0060174065986722
  13    -0.0453627767587925
  14     0.0000391433050550
  15     0.1370331684293954
  16    -1.0819613014023897
  17     1.1493015811604148
  18    -0.4051525427030063
  19     0.0002778831961551
  20    -0.0006035881806603
  21     0.4328417701610323
  22    -0.0012083997297855
  23     0.0015779864837814
  24     0.0244914071200867
  25     0.0000328906800012
  26     0.0154306031628530
  27    -0.0428433054678275
  28    -0.0001132264995152
  29     0.0435366378393919
  30    -0.2568534961983610
  31    -0.0375663773840746
  32     0.0016175339209400
  33     0.0015527670367912
  34     0.0435209157787266
  35    -0.2568279211131786
  36    -0.0375671692964433
  37    -0.0016066729280786
  38    -0.0016276745717061
  39    -0.0896459457688296
  40    -0.2518951155384307
  41     0.0297088139756784
  42    -0.0049973648122314
  43     0.0050917964170540
  44    -0.0874158496439683
  45    -0.2533501102041897
  46     0.0296698493302517
  47     0.0049553503521126
  48    -0.0050004333038614
 Ene=    0.669212
 Spin=  Alpha
 Occup=    0.000000
   1     0.0010592492772447
   2     0.0562156724673880
   3    -0.1248889822028029
   4    -0.0188236849509299
   5     0.0004782916981639
   6    -0.0005082252837369
   7     0.9315352378320619
   8     0.0003928887548030
   9     0.0003891130010068
  10    -0.0109197707149076
  11    -0.0002651856720914
  12    -0.0170511537578084
  13     0.0193585341513773
  14     0.0003075058577613
  15     0.0626437185646690
  16    -0.7776880068502424
  17     3.2757503649389674
  18     0.2992058311134055
  19    -0.0003336640074932
  20     0.0006108312366482
  21    -0.9655434135123662
  22    -0.0023750537940365
  23     0.0015941657322918
  24    -0.0026915588883748
  25     0.0005611433271785
  26     0.0873182496911871
  27     0.0022276592347270
  28    -0.0006197979042841
  29    -0.2176019829209553
  30    -0.2362219091885272
  31     0.0060499630219993
  32    -0.0136993250132499
  33    -0.0137596272458079
  34    -0.2176272093495962
  35    -0.2361505209975511
  36     0.0060274775605272
  37     0.0139443719952022
  38     0.0135215849817075
  39    -0.7055636514155318
  40    -0.6698210141684123
  41    -0.0437158289789172
  42     0.0120542159373753
  43    -0.0122605766795463
  44    -0.6973071429717743
  45    -0.6743007962498571
  46    -0.0444323033139468
  47    -0.0120294752689109
  48     0.0121667424640697
 Ene=    0.697911
 Spin=  Alpha
 Occup=    0.000000
   1     0.0000063091343949
   2    -0.0000908634452527
   3     0.0004063486685932
   4    -0.0000014061626735
   5    -0.0221474682862715
   6    -0.0220295535761566
   7    -0.0001466473609850
   8     0.1103973709800340
   9     0.1086466042066207
  10    -0.0000415271436139
  11    -0.0390631105679045
  12    -0.0000406099272638
  13     0.0000371284931022
  14    -0.0395699101659586
  15    -0.0000040770750753
  16     0.0000588035851928
  17    -0.0003574638778541
  18    -0.0006280772862729
  19     0.7540352516162878
  20     0.7436744132011971
  21     0.0005879205390577
  22    -0.8218042710041119
  23    -0.8099563346538785
  24     0.0000193934250468
  25     0.0120975165205491
  26     0.0000052714344495
  27    -0.0000062720509002
  28     0.0121947883992103
  29    -0.0719420380085759
  30     0.2878610615959749
  31     0.0226605036580794
  32    -0.0079752849816444
  33    -0.0078821656975675
  34     0.0718091710293283
  35    -0.2879006632009825
  36    -0.0226466810571832
  37    -0.0079778337185724
  38    -0.0079038540008279
  39    -0.0002573011865485
  40     0.0001323560005026
  41     0.0000148349869065
  42     0.0165056453108991
  43     0.0162763975612101
  44     0.0003050424655621
  45    -0.0000683229486859
  46    -0.0000367672803327
  47     0.0165137959659165
  48     0.0162891561985462
 Ene=    0.711200
 Spin=  Alpha
 Occup=    0.000000
   1     0.0026083581195001
   2    -0.0426747707376780
   3     0.2091168915829184
   4    -0.0092190708082695
   5     0.1947010762598566
   6    -0.1974157934189265
   7    -0.0229738385720129
   8     0.2671035726063323
   9    -0.2700144107578565
  10     0.0002729998627628
  11    -0.0467692409436456
  12    -0.0044689406408312
  13    -0.0004267048165739
  14     0.0461027963488830
  15    -0.0014272359925245
  16     0.0238987697761920
  17    -0.1596775937243180
  18    -0.0123413970151059
  19    -0.0559179413214924
  20     0.0560748415913708
  21    -0.0384775018050039
  22    -0.7728071764346355
  23     0.7838099267067161
  24    -0.0003341703711979
  25     0.0989663470976615
  26    -0.0020619491857399
  27     0.0007938510372201
  28    -0.0975567886307072
  29    -0.0353518940733189
  30    -0.0157205669320240
  31     0.0008662049164577
  32     0.0321043020634864
  33    -0.0342651558393734
  34    -0.0346921281005397
  35    -0.0154888531828147
  36     0.0009336128327422
  37     0.0338414411772082
  38    -0.0325489349897947
  39    -0.8449345408953444
  40     0.2678541233249245
  41     0.0741897356788112
  42    -0.0013801900335491
  43     0.0014164404079864
  44     0.8619139127568203
  45    -0.2429090984397549
  46    -0.0725451439331498
  47    -0.0028081291169878
  48     0.0027452424507132
 Ene=    0.720256
 Spin=  Alpha
 Occup=    0.000000
   1     0.0665218207464910
   2    -0.9277270786293659
   3     4.1541794844576367
   4    -0.1873500930917773
   5    -0.0106322044775381
   6     0.0105997748872307
   7    -0.2818073356748758
   8    -0.0161902358037804
   9     0.0162759497836626
  10     0.0063243013397481
  11     0.0022359841613608
  12    -0.0931504246829212
  13    -0.0084506718868718
  14    -0.0021322277447769
  15    -0.0250946580692232
  16     0.3964780004584080
  17    -2.7620197618771152
  18    -0.2292714280462821
  19     0.0032602692543977
  20    -0.0036096918850198
  21    -0.7311133082950358
  22     0.0391232043155010
  23    -0.0401254852836221
  24    -0.0081368730594160
  25    -0.0048702875616730
  26    -0.0278243175123490
  27     0.0148425993361516
  28     0.0048413604561896
  29    -0.7090259650945416
  30    -0.3932778004617885
  31     0.0212378455198492
  32    -0.0225088928987193
  33    -0.0182912829212294
  34    -0.7091118865463538
  35    -0.3930105244258739
  36     0.0212089327049013
  37     0.0186042703954738
  38     0.0222779280759052
  39     0.1312617245384620
  40     0.1982881530933490
  41     0.0126542039777779
  42     0.0165204033621004
  43    -0.0167428410241493
  44     0.0457725169569102
  45     0.2224018593902317
  46     0.0202366503090936
  47    -0.0163554902765270
  48     0.0166022542015838
 Ene=    0.788370
 Spin=  Alpha
 Occup=    0.000000
   1    -0.0492594115278085
   2     0.2334770917933222
   3    -0.9680908062377975
   4    -0.1686608896051801
   5    -0.0006193596849695
   6     0.0004761379960626
   7     0.6845398888752858
   8     0.0001871036214102
   9     0.0003630078777390
  10     0.0056031389609804