
 Primary working directories:    /u/s/ben/molpro
 Secondary working directories:  /u/s/ben/molpro

 CPU=Opteron 2211.379:2211.379 MHz
 mxmblk= 64  mxmbln= 64  ncache= 16384  mindgm= 15  mindgv= 24  mindgc= 16  mindgl=  5  mindgr=  1  noblas=0  nroll=2  minvec=7
 default implementation of scratch files=df  

 ***,SA-2-CAS(2/2)
                                                           ! One step of S0/S1 conical intersection search in Cartesian coordinates
 memory,50,m
 FILE,2,jkl.wfn
 punch,all.pun
 geometry={
 nosymm,noorient,angstrom;
 C,,         0.04100073,      0.09369438,     -0.44185365
 C,,        -0.29480700,     -0.08739467,      0.95135555
 H,,         1.10937842,     -0.14303472,     -0.54485365
 H,,        -0.09069704,      1.11745263,     -0.80372136
 H,,        -0.49973689,     -0.57081966,     -1.12302139
 H,,        -0.10163859,     -0.32631263,      1.96904732
 }
 basis=6-31g**
  
 INT
 HF
 MULTI
 config,csf;
 OCC,9;
 CLOSED,7;
 WF,16,1,0;
 STATE,2;
 WEIGHT,1,1;
 MAXITER,100;
  
 MRCI
 OCC,9;
 CLOSED,7;
 WF,16,1,0;
 STATE,2;
 ---

 Variables initialized (516), CPU time= 0.01 sec
 Commands  initialized (293), CPU time= 0.02 sec, 434 directives.
 Default parameters read. Elapsed time= 0.06 sec
 Checking input...
 Passed
1


                                         ***  PROGRAM SYSTEM MOLPRO  ***
                         Copyright, University College Cardiff Consultants Limited, 2004

                                    Version 2006.1 linked 11 Jul 2006 00:19:12


 **********************************************************************************************************************************
 LABEL *   SA-2-CAS(2/2)                                                                 
 Linux-2.6.9-42.0.2.ELsmp/compute-4-6.local(x86_64) 64 bit version (pgf6.0-5/acml)       DATE:   5-Jul-07         TIME: 14:35:31  
 **********************************************************************************************************************************

 Patch level:      1

 Modules:           develop
 **********************************************************************************************************************************

 Variable memory set to   50000000 words,  buffer space   230000 words



 Permanent file  2  jkl.wfn  assigned.  Implementation=df    Size=  1.23 MB


 PROGRAM * RESTART 


 Reading variables from file 2

 FOCKDONE        =      0.00000000
 SCFDONE         =      1.00000000
 DIRECT          =      0.00000000
 BASIS           =    6-31G**
 NELEC           =     16.00000000
 SPIN            =      0.00000000
 PROGRAM         =    MRCI
 CPUSTEP         =      8.51000000
 SYSSTEP         =      0.33000000
 WALLSTEP        =      8.83000000
 BASINP          =    610.00000000
 CPUTOT          =      9.99000000
 DMX(1:2)        =      0.29377989     0.25104923
 DMY(1:2)        =     -0.04355709    -0.03870506
 DMZ(1:2)        =     -0.14176176    -0.11707841
 ENERGD(1:2)     =    -78.17501140   -78.17478281
 ENERGP(1:2)     =    -78.17232813   -78.17209483
 ENERGR(1:2)     =    -77.89176091   -77.89148846
 ENERGY(1:2)     =    -78.15156915   -78.15125902
 ENUC            =     32.10693586
 GRADEXFAC       =   9999.00000000
 ITERATIONS      =      6.00000000
 LASTNELEC       =      2.00000000
 LASTSPIN        =      0.00000000
 LASTSYM         =      1.00000000
 ORBITAL         =   2140.20000000
 ROOT(1:2)       =      1.00000000     2.00000000
 SEIG_MIN        =      0.00723845
 STATUS          =      1.00000000
 SYSTOT          =      0.54000000
 TROV(1:1053)    =      0.00000000     0.00000000     0.00000000     0.00000000     0.00000000     0.00000000
                        0.00000000     0.00000000     0.00000000     0.00000000     0.00000000     0.00000000
                        0.00000000     0.00000000     0.00000000     0.00000000     0.00000000     0.00000000
                        0.00000000     0.00000000     0.00000000     0.00000000     0.00000000     0.00000000
                        0.00000000     0.00000000     0.00000000     0.00000000     0.00000000     0.00000000
                        0.00000000     0.00000000     0.00000000     0.00000000     0.00000000     0.00000000
                        0.00000000     0.00000000     0.00000000     0.00000000     0.00000000     0.00000000
                        0.00000000     0.00000000     0.00000000     0.00000000     0.00000000     0.00000000
                        0.00000000     0.00000000     0.00000000     0.00000000     0.00000000     0.00000000
                        0.00000000     0.00000000     0.00000000     0.00000000     0.00000000     0.00000000
                        0.00000000     0.00000000     0.00000000     0.00000000     0.00000000     0.00000000
                        0.00000000     0.00000000     0.00000000     0.00000000     0.00000000     0.00000000
                        0.00000000     0.00000000     0.00000000     0.00000000     0.00000000     0.00000000
                        0.00000000     0.00000000     0.00000000     0.00000000     0.00000000     0.00000000
                        0.00000000     0.00000000     0.00000000     0.00000000     0.00000000     0.00000000
                        0.00000000     0.00000000     0.00000000     0.00000000     0.00000000     0.00000000
                        0.00000000     0.00000000     0.00000000     0.00000000     0.00000000     0.00000000
                        0.00000000     0.00000000     0.00000000     0.00000000     0.00000000     0.00000000
                        0.00000000     0.00000000     0.00000000     0.00000000     0.00000000     0.00000000
                        0.00000000     0.00000000     0.00000000     0.00000000     0.00000000     0.00000000
                        0.00000000     0.00000000     0.00000000     0.00000000     0.00000000     0.00000000
                        0.00000000     0.00000000     0.00000000     0.00000000     0.00000000     0.00000000
                        0.00000000     0.00000000     0.00000000     0.00000000     0.00000000     0.00000000
                        0.00000000     0.00000000     0.00000000     0.00000000     0.00000000     0.00000000
                        0.00000000     0.00000000     0.00000000     0.00000000     0.00000000     0.00000000
                        0.00000000     0.00000000     0.00000000     0.00000000     0.00000000     0.00000000
                        0.00000000     0.00000000     0.00000000     0.00000000     0.00000000     0.00000000
                        0.00000000     0.00000000     0.00000000     0.00000000     0.00000000     0.00000000
                        0.00000000     0.00000000     0.00000000     0.00000000     0.00000000     0.00000000
                        0.00000000     0.00000000     0.00000000     0.00000000     0.00000000     0.00000000
                        0.00000000     0.00000000     0.00000000     0.00000000     0.00000000     0.00000000
                        0.00000000     0.00000000     0.00000000     0.00000000     0.00000000     0.00000000
                        0.00000000     0.00000000     0.00000000     0.00000000     0.00000000     0.00000000
                        0.00000000     0.00000000     0.00000000     0.00000000     0.00000000     0.00000000
                        0.00000000     0.00000000     0.00000000     0.00000000     0.00000000     0.00000000
                        0.00000000     0.00000000     0.00000000     0.00000000     0.00000000     0.00000000
                        0.00000000     0.00000000     0.00000000     0.00000000     0.00000000     0.00000000
                        0.00000000     0.00000000     0.00000000     0.00000000     0.00000000     0.00000000
                        0.00000000     0.00000000     0.00000000     0.00000000     0.00000000     0.00000000
                        0.00000000     0.00000000     0.00000000     0.00000000     0.00000000     0.00000000
                        0.00000000     0.00000000     0.00000000     0.00000000     0.00000000     0.00000000
                        0.00000000     0.00000000     0.00000000     0.00000000     0.00000000     0.00000000
                        0.00000000     0.00000000     0.00000000     0.00000000     0.00000000     0.00000000
                        0.00000000     0.00000000     0.00000000     0.00000000     0.00000000     0.00000000
                        0.00000000     0.00000000     0.00000000     0.00000000     0.00000000     0.00000000
                        0.00000000     0.00000000     0.00000000     0.00000000     0.00000000     0.00000000
                        0.00000000     0.00000000     0.00000000     0.00000000     0.00000000     0.00000000
                        0.00000000     0.00000000     0.00000000     0.00000000     0.00000000     0.00000000
                        0.00000000     0.00000000     0.00000000     0.00000000     0.00000000     0.00000000
                        0.00000000     0.00000000     0.00000000     0.00000000     0.00000000     0.00000000
                        0.00000000     0.00000000     0.00000000     0.00000000     0.00000000     0.00000000
                        0.00000000     0.00000000     0.00000000     0.00000000     0.00000000     0.00000000
                        0.00000000     0.00000000     0.00000000     0.00000000     0.00000000     0.00000000
                        0.00000000     0.00000000     0.00000000     0.00000000     0.00000000     0.00000000
                        0.00000000     0.00000000     0.00000000     0.00000000     0.00000000     0.00000000
                        0.00000000     0.00000000     0.00000000     0.00000000     0.00000000     0.00000000
                        0.00000000     0.00000000     0.00000000     0.00000000     0.00000000     0.00000000
                        0.00000000     0.00000000     0.00000000     0.00000000     0.00000000     0.00000000
                        0.00000000     0.00000000     0.00000000     0.00000000     0.00000000     0.00000000
                        0.00000000     0.00000000     0.00000000     0.00000000     0.00000000     0.00000000
                        0.00000000     0.00000000     0.00000000     0.00000000     0.00000000     0.00000000
                        0.00000000     0.00000000     0.00000000     0.00000000     0.00000000     0.00000000
                        0.00000000     0.00000000     0.00000000     0.00000000     0.00000000     0.00000000
                        0.00000000     0.00000000     0.00000000     0.00000000     0.00000000     0.00000000
                        0.00000000     0.00000000     0.00000000     0.00000000     0.00000000     0.00000000
                        0.00000000     0.00000000     0.00000000     0.00000000     0.00000000     0.00000000
                        0.00000000     0.00000000     0.00000000     0.00000000     0.00000000     0.00000000
                        0.00000000     0.00000000     0.00000000     0.00000000     0.00000000     0.00000000
                        0.00000000     0.00000000     0.00000000     0.00000000     0.00000000     0.00000000
                        0.00000000     0.00000000     0.00000000     0.00000000     0.00000000     0.00000000
                        0.00000000     0.00000000     0.00000000     0.00000000     0.00000000     0.00000000
                        0.00000000     0.00000000     0.00000000     0.00000000     0.00000000     0.00000000
                        0.00000000     0.00000000     0.00000000     0.00000000     0.00000000     0.00000000
                        0.00000000     0.00000000     0.00000000     0.00000000     0.00000000     0.00000000
                        0.00000000     0.00000000     0.00000000     0.00000000     0.00000000     0.00000000
                        0.00000000     0.00000000     0.00000000     0.00000000     0.00000000     0.00000000
                        0.00000000     0.00000000     0.00000000     0.00000000     0.00000000     0.00000000
                        0.00000000     0.00000000     0.00000000     0.00000000     0.00000000     0.00000000
                        0.00000000     0.00000000     0.00000000     0.00000000     0.00000000     0.00000000
                        0.00000000     0.00000000     0.00000000     0.00000000     0.00000000     0.00000000
                        0.00000000     0.00000000     0.00000000     0.00000000     0.00000000     0.00000000
                        0.00000000     0.00000000     0.00000000     0.00000000     0.00000000     0.00000000
                        0.00000000     0.00000000     0.00000000     0.00000000     0.00000000     0.00000000
                        0.00000000     0.00000000     0.00000000     0.00000000     0.00000000     0.00000000
                        0.00000000     0.00000000     0.00000000     0.00000000     0.00000000     0.00000000
                        0.00000000     0.00000000     0.00000000     0.00000000     0.00000000     0.00000000
                        0.00000000     0.00000000     0.00000000     0.00000000     0.00000000     0.00000000
                        0.00000000     0.00000000     0.00000000     0.00000000     0.00000000     0.00000000
                        0.00000000     0.00000000     0.00000000     0.00000000     0.00000000     0.00000000
                        0.00000000     0.00000000     0.00000000     0.00000000     0.00000000     0.00000000
                        0.00000000     0.00000000     0.00000000     0.00000000     0.00000000     0.00000000
                        0.00000000     0.00000000     0.00000000     0.00000000     0.00000000     0.00000000
                        0.00000000     0.00000000     0.00000000     0.00000000     0.00000000     0.00000000
                        0.00000000     0.00000000     0.00000000     0.00000000     0.00000000     0.00000000
                        0.00000000     0.00000000     0.00000000     0.00000000     0.00000000     0.00000000
                        0.00000000     0.00000000     0.00000000     0.00000000     0.00000000     0.00000000
                        0.00000000     0.00000000     0.00000000     0.00000000     0.00000000     0.00000000
                        0.00000000     0.00000000     0.00000000     0.00000000     0.00000000     0.00000000
                        0.00000000     0.00000000     0.00000000     0.00000000     0.00000000     0.00000000
                        0.00000000     0.00000000     0.00000000     0.00000000     0.00000000     0.00000000
                        0.00000000     0.00000000     0.00000000     0.00000000     0.00000000     0.00000000
                        0.00000000     0.00000000     0.00000000     0.00000000     0.00000000     0.00000000
                        0.00000000     0.00000000     0.00000000     0.00000000     0.00000000     0.00000000
                        0.00000000     0.00000000     0.00000000     0.00000000     0.00000000     0.00000000
                        0.00000000     0.00000000     0.00000000     0.00000000     0.00000000     0.00000000
                        0.00000000     0.00000000     0.00000000     0.00000000     0.00000000     0.00000000
                        0.00000000     0.00000000     0.00000000     0.00000000     0.00000000     0.00000000
                        0.00000000     0.00000000     0.00000000     0.00000000     0.00000000     0.00000000
                        0.00000000     0.00000000     0.00000000     0.00000000     0.00000000     0.00000000
                        0.00000000     0.00000000     0.00000000     0.00000000     0.00000000     0.00000000
                        0.00000000     0.00000000     0.00000000     0.00000000     0.00000000     0.00000000
                        0.00000000     0.00000000     0.00000000     0.00000000     0.00000000     0.00000000
                        0.00000000     0.00000000     0.00000000     0.00000000     0.00000000     0.00000000
                        0.00000000     0.00000000     0.00000000     0.00000000     0.00000000     0.00000000
                        0.00000000     0.00000000     0.00000000     0.00000000     0.00000000     0.00000000
                        0.00000000     0.00000000     0.00000000     0.00000000     0.00000000     0.00000000
                        0.00000000     0.00000000     0.00000000     0.00000000     0.00000000     0.00000000
                        0.00000000     0.00000000     0.00000000     0.00000000     0.00000000     0.00000000
                        0.00000000     0.00000000     0.00000000     0.00000000     0.00000000     0.00000000
                        0.00000000     0.00000000     0.00000000     0.00000000     0.00000000     0.00000000
                        0.00000000     0.00000000     0.00000000     0.00000000     0.00000000     0.00000000
                        0.00000000     0.00000000     0.00000000     0.00000000     0.00000000     0.00000000
                        0.00000000     0.00000000     0.00000000     0.00000000     0.00000000     0.00000000
                        0.00000000     0.00000000     0.00000000     0.00000000     0.00000000     0.00000000
                        0.00000000     0.00000000     0.00000000     0.00000000     0.00000000     0.00000000
                        0.00000000     0.00000000     0.00000000     0.00000000     0.00000000     0.00000000
                        0.00000000     0.00000000     0.00000000     0.00000000     0.00000000     0.00000000
                        0.00000000     0.00000000     0.00000000     0.00000000     0.00000000     0.00000000
                        0.00000000     0.00000000     0.00000000     0.00000000     0.00000000     0.00000000
                        0.00000000     0.00000000     0.00000000     0.00000000     0.00000000     0.00000000
                        0.00000000     0.00000000     0.00000000     0.00000000     0.00000000     0.00000000
                        0.00000000     0.00000000     0.00000000     0.00000000     0.00000000     0.00000000
                        0.00000000     0.00000000     0.00000000     0.00000000     0.00000000     0.00000000
                        0.00000000     0.00000000     0.00000000     0.00000000     0.00000000     0.00000000
                        0.00000000     0.00000000     0.00000000     0.00000000     0.00000000     0.00000000
                        0.00000000     0.00000000     0.00000000     0.00000000     0.00000000     0.00000000
                        0.00000000     0.00000000     0.00000000     0.00000000     0.00000000     0.00000000
                        0.00000000     0.00000000     0.00000000     0.00000000     0.00000000     0.00000000
                        0.00000000     0.00000000     0.00000000     0.00000000     0.00000000     0.00000000
                        0.00000000     0.00000000     0.00000000     0.00000000     0.00000000     0.00000000
                        0.00000000     0.00000000     0.00000000     0.00000000     0.00000000     0.00000000
                        0.00000000     0.00000000     0.00000000     0.00000000     0.00000000     0.00000000
                        0.00000000     0.00000000     0.00000000     0.00000000     0.00000000     0.00000000
                        0.00000000     0.00000000     0.00000000     0.00000000     0.00000000     0.00000000
                        0.00000000     0.00000000     0.00000000     0.00000000     0.00000000     0.00000000
                        0.00000000     0.00000000     0.00000000     0.00000000     0.00000000     0.00000000
                        0.00000000     0.00000000     0.00000000     0.00000000     0.00000000     0.00000000
                        0.00000000     0.00000000     0.00000000     0.00000000     0.00000000     0.00000000
                        0.00000000     0.00000000     0.00000000     0.00000000     0.00000000     0.00000000
                        0.00000000     0.00000000     0.00000000     0.00000000     0.00000000     0.00000000
                        0.00000000     0.00000000     0.00000000     0.00000000     0.00000000     0.00000000
                        0.00000000     0.00000000     0.00000000     0.00000000     0.00000000     0.00000000
                        0.00000000     0.00000000     0.00000000     0.00000000     0.00000000     0.00000000
                        0.00000000     0.00000000     0.00000000     0.00000000     0.00000000     0.00000000
                        0.00000000     0.00000000     0.00000000     0.00000000     0.00000000     0.00000000
                        0.00000000     0.00000000     0.00000000     0.00000000     0.00000000     0.00000000
                        0.00000000     0.00000000     0.00000000     0.00000000     0.00000000     0.00000000
                        0.00000000     0.00000000     0.00000000     0.00000000     0.00000000     0.00000000
                        0.00000000     0.00000000     0.00000000     0.00000000     0.00000000     0.00000000
                        0.00000000     0.00000000     0.00000000     0.00000000     0.00000000     0.00000000
                        0.00000000     0.00000000     0.00000000     0.00000000     0.00000000     0.00000000
                        0.00000000     0.00000000     0.00000000     0.00000000     0.00000000     0.00000000
                        0.00000000     0.00000000     0.00000000     0.00000000     0.00000000     0.00000000
                        0.00000000     0.00000000     0.00000000     0.00000000     0.00000000     0.00000000
                        0.00000000     0.00000000     0.00000000     0.00000000     0.00000000     0.00000000
                        0.00000000     0.00000000     0.00000000     0.00000000     0.00000000     0.00000000
                        0.00000000     0.00000000     0.00000000     0.00000000     0.00000000     0.00000000
                        0.00000000     0.00000000     0.00000000     0.00000000     0.00000000     0.00000000
                        0.00000000     0.00000000     0.00000000     0.00000000     0.00000000     0.00000000
                        0.00000000     0.00000000     0.00000000     0.00000000     0.00000000     0.00000000
                        0.00000000     0.00000000     0.00000000     0.00000000     0.00000000     0.00000000
                        0.00000000     0.00000000     0.00000000     0.00000000     0.00000000     0.00000000
                        0.00000000     0.00000000     0.00000000     0.00000000     0.00000000     0.00000000
                        0.00000000     0.00000000     0.00000000     0.00000000     0.00000000     0.00000000
                        0.00000000     0.00000000     0.00000000     0.00000000     0.00000000     0.00000000
                        0.00000000     0.00000000     0.00000000
 WALLTOT         =     11.06000000
 MODULE_DEVELOP  =    true
 LASTORB         =    MCSCF
 PGROUP          =    C1  
 TRDMX           =      0.01135043
 TRDMY           =      0.04778531
 TRDMZ           =      0.00915047


 **********************************************************************************************************************************
 DATASETS  * FILE   NREC   LENGTH (MB)   RECORD NAMES
              2       6        1.29       500      610      700     1000     2100     2140   
                                          VAR    BASINP    GEOM     BASIS     RHF     MCSCF   

 PROGRAMS   *        TOTAL   RESTART
 CPU TIMES  *         0.30      0.04
 REAL TIME  *         0.33 SEC
 DISK USED  *         0.03 MB      
 **********************************************************************************************************************************

 PUNCHFILE ALL.PUN OPENED
 SETTING BASIS          =    6-31G**


 Using spherical harmonics

 Library entry C      S 6-31G                selected for orbital group  1
 Library entry C      P 6-31G                selected for orbital group  1
 Library entry C      D 6-31G*               selected for orbital group  1
 Library entry H      S 6-31G                selected for orbital group  2
 Library entry H      P 6-31G**              selected for orbital group  2

1PROGRAM * SEWARD (Integral evaluation for generally contracted gaussian basis sets)     Author: Roland Lindh, 1990

 Geometry written to block  1 of record 701


 Point group  C1  



 ATOMIC COORDINATES

 NR  ATOM    CHARGE       X              Y              Z

   1  C       6.00    0.077480145    0.177056705   -0.834982326
   2  C       6.00   -0.557104450   -0.165151979    1.797801307
   3  H       1.00    2.096421231   -0.270296428   -1.029624102
   4  H       1.00   -0.171392554    2.111679276   -1.518813142
   5  H       1.00   -0.944365788   -1.078692746   -2.122202706
   6  H       1.00   -0.192069085   -0.616641457    3.720959893

 Bond lengths in Bohr (Angstrom)

 1-2  2.729716844  1-3  2.077049195  1-4  2.066960739  1-5  2.068335588  2-6  2.008888378
     (1.444504050)     (1.099127179)     (1.093788598)     (1.094516136)     (1.063058025)

 Bond angles

  1-2-6  155.40360035   2-1-3  106.81911431   2-1-4  114.10670999   2-1-5  114.15976806

  3-1-4  106.71569737   3-1-5  106.92606324   4-1-5  107.63049191

 NUCLEAR CHARGE:                   16
 NUMBER OF PRIMITIVE AOS:          84
 NUMBER OF SYMMETRY AOS:           82
 NUMBER OF CONTRACTIONS:           48   (  48A   )
 NUMBER OF CORE ORBITALS:           2   (   2A   )
 NUMBER OF VALENCE ORBITALS:       12   (  12A   )


 NUCLEAR REPULSION ENERGY   32.10611330


 Eigenvalues of metric

         1 0.724E-02 0.307E-01 0.329E-01 0.502E-01 0.581E-01 0.153E+00 0.175E+00 0.178E+00


 Contracted 2-electron integrals neglected if value below      1.0D-11
 AO integral compression algorithm  1   Integral accuracy      1.0D-11

     3.670 MB (compressed) written to integral file ( 57.4%)


 NUMBER OF SORTED TWO-ELECTRON INTEGRALS:     692076.     BUFFER LENGTH:  32768
 NUMBER OF SEGMENTS:   1  SEGMENT LENGTH:     692076      RECORD LENGTH: 524288

 Memory used in sort:       1.25 MW

 SORT1 READ     831608. AND WROTE     676045. INTEGRALS IN    2 RECORDS. CPU TIME:     0.04 SEC, REAL TIME:     0.07 SEC
 SORT2 READ     676045. AND WROTE     692076. INTEGRALS IN   14 RECORDS. CPU TIME:     0.07 SEC, REAL TIME:     0.10 SEC

 FILE SIZES:   FILE 1:    5.6 MBYTE,  FILE 4:    8.4 MBYTE,   TOTAL:   14.0 MBYTE

 OPERATOR DM      FOR CENTER  0  COORDINATES:    0.000000    0.000000    0.000000


 **********************************************************************************************************************************
 DATASETS  * FILE   NREC   LENGTH (MB)   RECORD NAMES
              1      19        4.88       500      610      701      900      950      970     1000     1100     1400     1410   
                                          VAR    BASINP    GEOM    SYMINP    ZMAT    AOBASIS   BASIS      S        T        V 
                                         1200     1210     1080     1600      129      960     1650     1300     1700   
                                          H0       H01     AOSYM     SMH      P2S    ABASIS   MOLCAS    ERIS     OPER   

              2       7        1.30       500      610      700     1000     2100     2140      701   
                                          VAR    BASINP    GEOM     BASIS     RHF     MCSCF    GEOM   

 PROGRAMS   *        TOTAL       INT   RESTART
 CPU TIMES  *         0.88      0.43      0.04
 REAL TIME  *         1.02 SEC
 DISK USED  *        15.54 MB      
 **********************************************************************************************************************************

1PROGRAM * RHF-SCF (CLOSED SHELL)       Authors: W. Meyer, H.-J. Werner


 NUMBER OF ELECTRONS:       8+    8-    SPACE SYMMETRY=1    SPIN SYMMETRY=Singlet 
 CONVERGENCE THRESHOLDS:    1.00E-05 (Density)    1.00E-07 (Energy)
 MAX. NUMBER OF ITERATIONS:       60
 INTERPOLATION TYPE:            DIIS
 INTERPOLATION STEPS:              2 (START)      1 (STEP)
 LEVEL SHIFTS:                  0.00 (CLOSED)  0.00 (OPEN) 



 Molecular orbitals read from record     2100.2  Type=RHF/CANONICAL (state 1.1)

 Molecular orbital dump at record        2100.2

 ITERATION    DDIFF          GRAD             ENERGY        2-EL.EN.            DIPOLE MOMENTS         DIIS
    1      0.000D+00      0.000D+00       -77.87268815    114.851760   0.396759  -0.063232  -0.167268    0
    2      0.000D+00      0.220D-04       -77.87268837    114.851201   0.396566  -0.063235  -0.167234    1
    3      0.192D-04      0.564D-05       -77.87268839    114.851362   0.396242  -0.063296  -0.167255    2
    4      0.931D-05      0.154D-05       -77.87268839    114.851249   0.396186  -0.063308  -0.167260    0

 Final occupancy:   8

 !RHF STATE 1.1 ENERGY                -77.872688390578
 Nuclear energy                        32.10611330
 One-electron energy                 -167.40442626
 Two-electron energy                   57.42562457
 Virial quotient                       -0.99914887
 !RHF STATE 1.1 DIPOLE MOMENT           0.39618602    -0.06330757    -0.16726018
 Dipole moment /Debye                   1.00693846    -0.16090125    -0.42510514


 **********************************************************************************************************************************
 DATASETS  * FILE   NREC   LENGTH (MB)   RECORD NAMES
              1      19        4.88       500      610      701      900      950      970     1000     1100     1400     1410   
                                          VAR    BASINP    GEOM    SYMINP    ZMAT    AOBASIS   BASIS      S        T        V 
                                         1200     1210     1080     1600      129      960     1650     1300     1700   
                                          H0       H01     AOSYM     SMH      P2S    ABASIS   MOLCAS    ERIS     OPER   

              2       7        1.30       500      610      700     1000     2100     2140      701   
                                          VAR    BASINP    GEOM     BASIS     RHF     MCSCF    GEOM   

 PROGRAMS   *        TOTAL        HF       INT   RESTART
 CPU TIMES  *         0.97      0.08      0.43      0.04
 REAL TIME  *         1.12 SEC
 DISK USED  *        15.54 MB      
 **********************************************************************************************************************************

1PROGRAM * MULTI (Direct Multiconfiguration SCF)       Authors: P.J. Knowles, H.-J. Werner (1984)     S.T. Elbert (1988)


 Number of closed-shell orbitals:  7 (  7 )
 Number of active  orbitals:       2 (  2 )
 Number of external orbitals:     39 ( 39 )

 State symmetry 1

 Number of electrons:     2    Spin symmetry=Singlet   Space symmetry=1
 Number of states:        2
 Number of CSFs:          3

 Iteration controls:
             1  2  3  4  5  6  7  8  9 10 11 12 13 14 15 16 17 18 19 20 21 22 23 24 25 26 27 28 29 30 31 32 33 34 35 36 37 38 39
 DIAGCI      T  T  T  T  T  T  T  T  T  T  T  T  T  T  T  T  T  T  T  T  T  T  T  T  T  T  T  T  T  T  T  T  T  T  T  T  T  T  T
 WERNER      T  T  T  T  T  T  T  T  T  T  T  T  T  T  T  T  T  T  T  T  T  T  T  T  T  T  T  T  T  T  T  T  T  T  T  T  T  T  T
 INTERNAL    F  T  T  T  T  T  T  T  T  T  T  T  T  T  T  T  T  T  T  T  T  T  T  T  T  T  T  T  T  T  T  T  T  T  T  T  T  T  T

 Maximum number of shells:             2
 Maximum number of spin couplings:     1

 Storage for configuration lists       6, coupling coefficients      5, address lists     28

 Molecular orbitals read from record     2140.2  Type=MCSCF/NATURAL (state averaged)

 Wavefunction dump at record             2140.2

 Convergence thresholds  0.10E-01 (gradient)  0.10E-05 (energy)  0.10E-02 (step length)

 Weight factors for state symmetry  1:    0.50000   0.50000

 Eigenvalues of redundancy matrix
   1-  1    0.000000

 Number of orbital rotations:     365     (  14 Core/Active  273 Core/Virtual   0 Active/Active   78 Active/Virtual)
 Total number of variables:       371


 ITER. MIC  NCI  NEG     ENERGY(VAR)     ENERGY(PROJ)   ENERGY CHANGE     GRAD(0)  GRAD(ORB)   GRAD(CI)     STEP       TIME

   1   18    7    0     -77.89163051     -77.89163074   -0.00000023    0.00073904 0.00000000 0.00000000  0.40D-03      0.15

 ** WVFN ****  CONVERGENCE REACHED, FINAL GRADIENT:  0.74D-07



 Results for state 1.1
 =====================

 !MCSCF STATE 1.1 ENERGY              -77.891769152869
 Nuclear energy                        32.10611330
 Kinetic energy                        77.94747806
 One electron energy                 -167.43172440
 Two electron energy                   57.43384195
 Virial ratio                           1.99928530

 !MCSCF STATE 1.1 DIPOLE MOMENT         0.30005522    -0.05149831    -0.11264587
 Dipole moment /Debye                   0.76261435    -0.13088708    -0.28629848

 Results for state 2.1
 =====================

 !MCSCF STATE 2.1 ENERGY              -77.891492323886
 Nuclear energy                        32.10611330
 Kinetic energy                        77.94170783
 One electron energy                 -167.43939562
 Two electron energy                   57.44179000
 Virial ratio                           1.99935573

 !MCSCF STATE 2.1 DIPOLE MOMENT         0.23661277    -0.03885373    -0.09415233
 Dipole moment /Debye                   0.60137030    -0.09874987    -0.23929568

 State-averaged charge density matrix saved on record  2140.2 (density set 1)

 !MCSCF expec         <1.1|DMX|1.1>     0.300055222660 au =     0.762614352809 Debye
 !MCSCF trans         <2.1|DMX|1.1>     0.013202581255 au =     0.033555416467 Debye
 !MCSCF expec         <2.1|DMX|2.1>     0.236612774370 au =     0.601370295083 Debye

 !MCSCF expec         <1.1|DMY|1.1>    -0.051498312584 au =    -0.130887081298 Debye
 !MCSCF trans         <2.1|DMY|1.1>     0.053800943049 au =     0.136739400834 Debye
 !MCSCF expec         <2.1|DMY|2.1>    -0.038853733493 au =    -0.098749871972 Debye

 !MCSCF expec         <1.1|DMZ|1.1>    -0.112645867664 au =    -0.286298484339 Debye
 !MCSCF trans         <2.1|DMZ|1.1>     0.010063028860 au =     0.025575992889 Debye
 !MCSCF expec         <2.1|DMZ|2.1>    -0.094152331599 au =    -0.239295682946 Debye


 Natural orbital dump (state averaged) at molpro section   2140.2    (Orbital set 2)



 **********************************************************************************************************************************
 DATASETS  * FILE   NREC   LENGTH (MB)   RECORD NAMES
              1      20        6.17       500      610      701      900      950      970     1000     1100     1400     1410   
                                          VAR    BASINP    GEOM    SYMINP    ZMAT    AOBASIS   BASIS      S        T        V 
                                         1200     1210     1080     1600      129      960     1650     1300     1700     1380   
                                          H0       H01     AOSYM     SMH      P2S    ABASIS   MOLCAS    ERIS     OPER     JKOP   

              2       7        1.30       500      610      700     1000     2100     2140      701   
                                          VAR    BASINP    GEOM     BASIS     RHF     MCSCF    GEOM   

 PROGRAMS   *        TOTAL     MULTI        HF       INT   RESTART
 CPU TIMES  *         1.27      0.29      0.08      0.43      0.04
 REAL TIME  *         1.49 SEC
 DISK USED  *        15.54 MB      
 **********************************************************************************************************************************

1PROGRAM * CI (Multireference internally contracted CI)     Authors: H.-J. Werner, P.J. Knowles, 1987


 Convergence thresholds:  THRVAR = 1.00D-08  THRDEN = 1.00D-06

 Number of optimized states:  2  Roots:   1   2
 Number of reference states:  2  Roots:   1   2

 Reference symmetry:                   1   Singlet 
 Number of electrons:                 16
 Maximum number of shells:             4
 Maximum number of spin couplings:     5

 Reference space:        3 conf        3 CSFs
 N elec internal:       28 conf       28 CSFs
 N-1 el internal:       47 conf       72 CSFs
 N-2 el internal:       56 conf      131 CSFs

 Number of electrons in valence space:                     12
 Maximum number of open shell orbitals in reference space:  2
 Maximum number of open shell orbitals in internal spaces:  6


 Number of core orbitals:           2 (   2 )
 Number of closed-shell orbitals:   5 (   5 )
 Number of active  orbitals:        2 (   2 )
 Number of external orbitals:      39 (  39 )

 Molecular orbitals read from record     2140.2  Type=MCSCF/NATURAL (state averaged)

 Coulomb and exchange operators available. No transformation done.

 Number of p-space configurations:   3

 Reference wavefunction optimized for reference space (refopt=1)

 State     Reference Energy 
   1         -77.89176915
   2         -77.89149232

 Number of blocks in overlap matrix:    61   Smallest eigenvalue:  0.10D+01
 Number of N-2 electron functions:      71
 Number of N-1 electron functions:      72

 Number of internal configurations:                   28
 Number of singly external configurations:          2808
 Number of doubly external configurations:         54210
 Total number of contracted configurations:        57046
 Total number of uncontracted configurations:     102481

 Diagonal Coupling coefficients finished.               Storage:   19968 words, CPU-Time:      0.01 seconds.
 Energy denominators for pairs finished in 1 passes.    Storage:   54647 words, CPU-time:      0.00 seconds.

  ITER. STATE  ROOT      NORM       CORR.ENERGY   TOTAL ENERGY   ENERGY CHANGE       DEN1      VAR(S)    VAR(P)      TIME
    1     1     1     1.00000000     0.00000000   -77.89176915     0.00000000    -0.27959569  0.15D-01  0.89D-01     0.07
    1     2     2     1.00000000     0.00000000   -77.89149232     0.00000000    -0.28040766  0.15D-01  0.89D-01     0.07
    2     1     1     1.08505053    -0.25425775   -78.14602691    -0.25425775    -0.00504716  0.77D-03  0.12D-02     1.56
    2     2     2     1.08531065    -0.25418652   -78.14567884    -0.25418652    -0.00508804  0.78D-03  0.12D-02     1.56
    3     1     1     1.08773068    -0.25958013   -78.15134928    -0.00532237    -0.00019389  0.27D-04  0.51D-04     3.09
    3     2     2     1.08813012    -0.25953606   -78.15102838    -0.00534954    -0.00020040  0.32D-04  0.50D-04     3.09
    4     1     1     1.08875392    -0.25979693   -78.15156609    -0.00021681    -0.00001078  0.27D-05  0.25D-05     4.43
    4     2     2     1.08915625    -0.25975843   -78.15125075    -0.00022237    -0.00001146  0.33D-05  0.24D-05     4.43
    5     1     1     1.08898524    -0.25980873   -78.15157788    -0.00001180    -0.00000060  0.13D-06  0.15D-06     5.75
    5     2     2     1.08943419    -0.25977108   -78.15126340    -0.00001265    -0.00000065  0.17D-06  0.15D-06     5.75
    6     1     1     1.08899005    -0.25980942   -78.15157858    -0.00000069    -0.00000005  0.16D-07  0.11D-07     7.09
    6     2     2     1.08944212    -0.25977186   -78.15126418    -0.00000078    -0.00000006  0.23D-07  0.11D-07     7.09
    7     1     1     1.08899248    -0.25980948   -78.15157864    -0.00000006    -0.00000001  0.23D-08  0.80D-09     8.43
    7     2     2     1.08944806    -0.25977193   -78.15126425    -0.00000007    -0.00000001  0.27D-08  0.93D-09     8.43


 =====================================
 Analysis of CPU times by interactions
 =====================================

       I      S      P

 I   0.0%
 S   0.1%   1.5%
 P   0.0%   3.8%  18.7%

 Initialization:   0.7%
 Other:           75.1%

 Total CPU:        8.4 seconds
 =====================================



 Reference coefficients greater than 0.0500000
 =============================================
 22222/\           0.0003147   0.9575794
 2222220           0.7748351  -0.0002450
 2222202          -0.5629074   0.0002003



 RESULTS FOR STATE 1.1
 =====================

 Coefficient of reference function:   C(0) = 0.95769517

 Energy contributions of configuration classes

 Class           Norm          ECORR1        ECORR2
 +++++++++++++++++++++++++++++++++++++++++++++++++++
 Internals    0.00119926   -0.00065444   -0.00088601
 Singles      0.01175330   -0.02659611   -0.02719560
 Pairs        0.07734591   -0.23255894   -0.23172787
 Total        1.09029847   -0.25980948   -0.25980948
 +++++++++++++++++++++++++++++++++++++++++++++++++++


 Reference energy                     -77.89176915
 Nuclear energy                        32.10611330
 Kinetic energy                        78.21676876
 One electron energy                 -167.36024701
 Two electron energy                   57.10255507
 Virial quotient                       -0.99916655
 Correlation energy                    -0.25980948
 !MRCI STATE 1.1 ENERGY               -78.151578637456
 Cluster corrected energies           -78.17502227 (Davidson)           -78.17469973 (externals)
                                      -78.17233890 (Pople)              -78.17203602 (externals)

 !MRCI STATE 1.1 DIPOLE MOMENT          0.29336235    -0.04395861    -0.14177480
 Dipole moment /Debye                   0.74560387    -0.11172433    -0.36033201



 RESULTS FOR STATE 2.1
 =====================

 Coefficient of reference function:   C(0) = 0.95757229

 Energy contributions of configuration classes

 Class           Norm          ECORR1        ECORR2
 +++++++++++++++++++++++++++++++++++++++++++++++++++
 Internals    0.00103746   -0.00029282   -0.00051562
 Singles      0.01250229   -0.02746122   -0.02816021
 Pairs        0.07703857   -0.23201789   -0.23109609
 Total        1.09057833   -0.25977193   -0.25977193
 +++++++++++++++++++++++++++++++++++++++++++++++++++


 Reference energy                     -77.89149232
 Nuclear energy                        32.10611330
 Kinetic energy                        78.20862665
 One electron energy                 -167.36280944
 Two electron energy                   57.10543189
 Virial quotient                       -0.99926655
 Correlation energy                    -0.25977193
 !MRCI STATE 2.1 ENERGY               -78.151264252003
 Cluster corrected energies           -78.17478972 (Davidson)           -78.17450035 (externals)
                                      -78.17210163 (Pople)              -78.17182976 (externals)

 !MRCI STATE 2.1 DIPOLE MOMENT          0.25079457    -0.03836901    -0.11704141
 Dipole moment /Debye                   0.63741447    -0.09751792    -0.29747010

 !MRCI trans          <2.1|DMX|1.1>     0.011539905988 au =     0.029329594261 Debye
 !MRCI trans          <2.1|DMY|1.1>     0.047855418049 au =     0.121628373405 Debye
 !MRCI trans          <2.1|DMZ|1.1>     0.009023633354 au =     0.022934286059 Debye


 **********************************************************************************************************************************
 DATASETS  * FILE   NREC   LENGTH (MB)   RECORD NAMES
              1      20        6.17       500      610      701      900      950      970     1000     1100     1400     1410   
                                          VAR    BASINP    GEOM    SYMINP    ZMAT    AOBASIS   BASIS      S        T        V 
                                         1200     1210     1080     1600      129      960     1650     1300     1700     1380   
                                          H0       H01     AOSYM     SMH      P2S    ABASIS   MOLCAS    ERIS     OPER     JKOP   

              2       7        1.30       500      610      700     1000     2100     2140      701   
                                          VAR    BASINP    GEOM     BASIS     RHF     MCSCF    GEOM   

 PROGRAMS   *        TOTAL      MRCI     MULTI        HF       INT   RESTART
 CPU TIMES  *         9.81      8.53      0.29      0.08      0.43      0.04
 REAL TIME  *        10.37 SEC
 DISK USED  *        18.17 MB      
 **********************************************************************************************************************************

        MRCI            MULTI           HF-SCF  
    -78.15126425    -77.89149232    -77.87268839
 **********************************************************************************************************************************
 Variable memory released
