[Molden Format]
[Atoms] Angs
 c       1                    6  6.995000000000e-01  0.000000000000e+00 -1.000000000000e-03
 c       2                    6 -6.505000000000e-01 -1.000000000000e-04 -1.900000000000e-03
 h       3                    1  1.259500000000e+00  9.083000000000e-01  2.486000000000e-01
 h       4                    1  1.260000000000e+00 -9.082000000000e-01 -2.499000000000e-01
 h       5                    1 -1.250800000000e+00 -9.009000000000e-01  2.321000000000e-01
 h       6                    1 -1.250100000000e+00  9.010000000000e-01 -2.368000000000e-01
[GTO]
1
 s           5
      1.238401693800e+03      5.517365048110e-03
      1.862900499200e+02      4.108882855595e-02
      4.225117634600e+01      1.822538212649e-01
      1.167655793200e+01      4.682845943743e-01
      3.593050648200e+00      4.457581733600e-01
 s           1
      4.024514736300e-01      1.000000000000e+00
 s           1
      1.309018266800e-01      1.000000000000e+00
 p           3
      9.468097062100e+00      5.688833201104e-02
      2.010354514200e+00      3.129405933647e-01
      5.477100470700e-01      7.606501650914e-01
 p           1
      1.526861379500e-01      1.000000000000e+00
 d           1
      8.000000000000e-01      1.000000000000e+00

2
 s           5
      1.238401693800e+03      5.517365048110e-03
      1.862900499200e+02      4.108882855595e-02
      4.225117634600e+01      1.822538212649e-01
      1.167655793200e+01      4.682845943743e-01
      3.593050648200e+00      4.457581733600e-01
 s           1
      4.024514736300e-01      1.000000000000e+00
 s           1
      1.309018266800e-01      1.000000000000e+00
 p           3
      9.468097062100e+00      5.688833201104e-02
      2.010354514200e+00      3.129405933647e-01
      5.477100470700e-01      7.606501650914e-01
 p           1
      1.526861379500e-01      1.000000000000e+00
 d           1
      8.000000000000e-01      1.000000000000e+00

3
 s           3
      1.301070100000e+01      3.348548481299e-02
      1.962257200000e+00      2.347218708812e-01
      4.445379600000e-01      8.137702852596e-01
 s           1
      1.219496200000e-01      1.000000000000e+00
 p           1
      8.000000000000e-01      1.000000000000e+00

4
 s           3
      1.301070100000e+01      3.348548481299e-02
      1.962257200000e+00      2.347218708812e-01
      4.445379600000e-01      8.137702852596e-01
 s           1
      1.219496200000e-01      1.000000000000e+00
 p           1
      8.000000000000e-01      1.000000000000e+00

5
 s           3
      1.301070100000e+01      3.348548481299e-02
      1.962257200000e+00      2.347218708812e-01
      4.445379600000e-01      8.137702852596e-01
 s           1
      1.219496200000e-01      1.000000000000e+00
 p           1
      8.000000000000e-01      1.000000000000e+00

6
 s           3
      1.301070100000e+01      3.348548481299e-02
      1.962257200000e+00      2.347218708812e-01
      4.445379600000e-01      8.137702852596e-01
 s           1
      1.219496200000e-01      1.000000000000e+00
 p           1
      8.000000000000e-01      1.000000000000e+00


[5D]
[7F]
[9G]
[MO]
 Ene=  -11.251347
 Spin=  Alpha
 Occup=    2.000000
   1    -0.2582965655666505
   2    -0.0065610136133571
   3    -0.0008605866712898
   4    -0.0014328491203836
   5    -0.0000000716444217
   6    -0.0000009654757586
   7     0.0015735773797808
   8     0.0000000212058841
   9     0.0000009194735215
  10    -0.0001690614028627
  11     0.0000003278200098
  12    -0.0000878608731983
  13     0.0001027328802723
  14    -0.0000001973650123
  15    -0.9566918092199699
  16    -0.0333312133597150
  17     0.0206264262148750
  18     0.0006970952384695
  19    -0.0000001907257238
  20     0.0000005366414571
  21     0.0004520510041089
  22     0.0000009723201851
  23     0.0000000794345752
  24     0.0013494357290619
  25    -0.0000015731471291
  26     0.0006131468055696
  27    -0.0002590133639664
  28    -0.0000012713657355
  29     0.0003462766662656
  30    -0.0011434811556670
  31     0.0003053815481276
  32    -0.0001214232106249
  33    -0.0000313941539041
  34     0.0003462323432693
  35    -0.0011439546975750
  36     0.0003053456082449
  37     0.0001213521856104
  38     0.0000317616628078
  39     0.0021364933685974
  40    -0.0046831013339613
  41     0.0005177227024323
  42     0.0011816112228065
  43    -0.0003097418668680
  44     0.0021352342524843
  45    -0.0046831780767608
  46     0.0005168142059643
  47    -0.0011814970464445
  48     0.0003104245684839
 Ene=  -11.248569
 Spin=  Alpha
 Occup=    2.000000
   1    -0.9566128372013623
   2    -0.0349317232123948
   3     0.0248771075765895
   4     0.0001150737773804
   5    -0.0000001058194321
   6     0.0000002066178115
   7    -0.0014566870759422
   8    -0.0000008600560989
   9    -0.0000010771769550
  10     0.0016266289821937
  11    -0.0000019203565362
  12    -0.0007338395214350
  13    -0.0001790288085754
  14     0.0000006204236449
  15     0.2580901616826829
  16     0.0117739037894850
  17    -0.0134048340649253
  18     0.0012504456024127
  19     0.0000002345412680
  20     0.0000007913276040
  21    -0.0019540285042595
  22     0.0000013362196830
  23    -0.0000016025114115
  24    -0.0009421614799000
  25     0.0000012363259382
  26    -0.0002269876269375
  27     0.0002552724851477
  28     0.0000004445683482
  29     0.0023268713144238
  30    -0.0050107790632074
  31    -0.0007572255026884
  32    -0.0012331123485488
  33    -0.0003421914931850
  34     0.0023265991584024
  35    -0.0050111008718671
  36    -0.0007579257613774
  37     0.0012330705695501
  38     0.0003412628137976
  39    -0.0007794959044048
  40     0.0016161038819428
  41    -0.0006208993884925
  42    -0.0004791601532050
  43     0.0001269627101231
  44    -0.0007800029330467
  45     0.0016139166810165
  46    -0.0006209508270994
  47     0.0004793924803931
  48    -0.0001278492549629
 Ene=   -1.019045
 Spin=  Alpha
 Occup=    2.000000
   1    -0.2007178018706569
   2     0.3869688754834293
   3     0.1153239915953517
   4    -0.1209680223380759
   5    -0.0000045136433113
   6    -0.0000791202490343
   7    -0.0206283332525235
   8    -0.0000021560811021
   9    -0.0000127073563116
  10    -0.0108701558953921
  11     0.0000215515558755
  12     0.0014339192222447
  13     0.0139377568127810
  14     0.0000008095974393
  15    -0.1987411177555532
  16     0.3850982697555617
  17     0.1188815689568243
  18     0.1222374338785562
  19     0.0000216282116488
  20     0.0000818412804833
  21     0.0236745529956815
  22     0.0000054049544749
  23     0.0000177738715942
  24    -0.0110681893024877
  25     0.0000223756948360
  26    -0.0013023085749210
  27     0.0143281929063627
  28     0.0000039745459056
  29     0.1067007654623850
  30     0.0105315636810520
  31    -0.0093031098880908
  32    -0.0126042671731926
  33    -0.0034871186287115
  34     0.1066936221466309
  35     0.0105309134234643
  36    -0.0093088527854463
  37     0.0126018012999169
  38     0.0034750124807583
  39     0.1018049239873980
  40     0.0106646491444688
  41     0.0091093204424542
  42     0.0116785882695143
  43    -0.0030523777480048
  44     0.1018260328851551
  45     0.0106659074021468
  46     0.0091025448149032
  47    -0.0116843211187795
  48     0.0030666127095063
 Ene=   -0.782247
 Spin=  Alpha
 Occup=    2.000000
   1     0.1516974378066236
   2    -0.3039886766091812
   3    -0.1345591021010040
   4    -0.1548369376016057
   5    -0.0000135428252539
   6    -0.0001025224294308
   7    -0.0583321339302767
   8    -0.0000042909038827
   9    -0.0000408866336912
  10     0.0030607519773678
  11     0.0000042404360854
  12    -0.0049754383483740
  13     0.0102766808096895
  14     0.0000041060085057
  15    -0.1540628536776694
  16     0.3098673889485866
  17     0.1382508658975274
  18    -0.1614527040054821
  19    -0.0000177653127429
  20    -0.0001077101623049
  21    -0.0596120638053455
  22    -0.0000052078584058
  23    -0.0000396887399185
  24    -0.0033707318019123
  25    -0.0000036434989016
  26    -0.0046769912297103
  27    -0.0096764612376077
  28     0.0000065823012819
  29    -0.1891823211555849
  30    -0.0358537180214629
  31     0.0069202815956677
  32     0.0164627745366564
  33     0.0047126750934883
  34    -0.1891794654513968
  35    -0.0358539420030406
  36     0.0069298006544258
  37    -0.0164612931600788
  38    -0.0047042900396956
  39     0.1933171385409694
  40     0.0373494531897512
  41     0.0076624294998527
  42     0.0166169711233730
  43    -0.0045271439431932
  44     0.1932449647073459
  45     0.0373381120606678
  46     0.0076437287891045
  47    -0.0166159215961809
  48     0.0045373155285801
 Ene=   -0.629672
 Spin=  Alpha
 Occup=    2.000000
   1     0.0000140052541454
   2    -0.0000295733437037
   3    -0.0000217675922735
   4    -0.0001772797783901
   5     0.3244398109745580
   6     0.0487283210879005
   7    -0.0000655150653061
   8     0.1351237778830493
   9     0.0067166009499387
  10     0.0000036053189169
  11     0.0041477233643107
  12    -0.0000016506002592
  13     0.0000016188271490
  14     0.0012775327934980
  15     0.0000055481797914
  16    -0.0000074124475163
  17    -0.0000358900358659
  18     0.0001374414436508
  19     0.3013940298523711
  20    -0.0281445047303473
  21     0.0000319180923596
  22     0.1342944921369127
  23     0.0025972524953142
  24     0.0000049711650738
  25     0.0047734829573901
  26    -0.0000011529829975
  27    -0.0000075332538794
  28     0.0003777062593401
  29     0.2150829333268464
  30     0.0544654492770048
  31    -0.0102281901156806
  32    -0.0093007445002087
  33    -0.0039602798515591
  34    -0.2152068102668610
  35    -0.0544995367201096
  36     0.0102358709716364
  37    -0.0093078147419828
  38    -0.0039498744505862
  39    -0.1916991760274160
  40    -0.0467961438421348
  41    -0.0096240882373069
  42    -0.0079960179877699
  43     0.0036323968817917
  44     0.1916398317174318
  45     0.0467882356650641
  46     0.0096163926684069
  47    -0.0079939135273137
  48     0.0036452730799114
 Ene=   -0.590186
 Spin=  Alpha
 Occup=    2.000000
   1    -0.0079729370768159
   2     0.0275193282079368
   3    -0.0363043059391789
   4    -0.4066076189062155
   5    -0.0002331827088768
   6    -0.0003160113109840
   7    -0.1454082898797394
   8    -0.0000937337611815
   9    -0.0001108257438783
  10    -0.0009459105694695
  11     0.0000144629876749
  12    -0.0045256400463463
  13     0.0201975290601924
  14    -0.0000002707082135
  15    -0.0140431585398794
  16     0.0400535825744810
  17    -0.0290663777236443
  18     0.4039303587146072
  19     0.0000091344590000
  20     0.0002411733046779
  21     0.1441063102805607
  22    -0.0000102844253095
  23     0.0000797058875902
  24    -0.0006220212069740
  25     0.0000125625488418
  26     0.0039187903313351
  27     0.0188276645367489
  28    -0.0000141622894152
  29    -0.1711059206995488
  30    -0.0566387216187943
  31    -0.0010540181834706
  32     0.0116752308277728
  33     0.0033796892400260
  34    -0.1708137119929156
  35    -0.0565440907874897
  36    -0.0010609465769007
  37    -0.0116638845148281
  38    -0.0033773725738674
  39    -0.1682265056680516
  40    -0.0556784990476433
  41     0.0003071159535642
  42    -0.0115628523730618
  43     0.0031902967457521
  44    -0.1680956620715117
  45    -0.0556342380354798
  46     0.0003239872989170
  47     0.0115575786311778
  48    -0.0031903587717854
 Ene=   -0.514757
 Spin=  Alpha
 Occup=    2.000000
   1     0.0000179346572539
   2    -0.0000456421246070
   3     0.0000202122179921
   4     0.0003178626791157
   5    -0.2019177942229444
   6    -0.2386475067245717
   7     0.0001472542362886
   8    -0.0777489129068164
   9    -0.1475517213239334
  10     0.0000121599521133
  11     0.0103931959928422
  12    -0.0000119315725489
  13    -0.0000096452990689
  14    -0.0204770209813001
  15     0.0000090745091589
  16    -0.0000212552732038
  17    -0.0000176896121918
  18     0.0000255097635432
  19     0.2325805504030038
  20    -0.2374683740237970
  21     0.0000264311347136
  22     0.0966547460299013
  23    -0.1460442036360020
  24    -0.0000109359740491
  25    -0.0101730889499066
  26    -0.0000196457025161
  27    -0.0000078188738448
  28    -0.0208489427231988
  29    -0.2064885938872731
  30    -0.0821488789842733
  31     0.0084716845844041
  32     0.0088615453713661
  33    -0.0023068696717887
  34     0.2065846253577904
  35     0.0821850048927526
  36    -0.0084676979473174
  37     0.0088665700529612
  38    -0.0023153187125461
  39    -0.2236955562022991
  40    -0.0890243973858535
  41    -0.0098754002121121
  42    -0.0089945289457034
  43    -0.0020085318037202
  44     0.2238595412645528
  45     0.0890931261052426
  46     0.0098734558539144
  47    -0.0090101467636764
  48    -0.0019906702180449
 Ene=    0.000000
 Spin=  Alpha
 Occup=    1.476705
   1    -0.0000112841281033
   2     0.0000245738810763
   3     0.0000068094174600
   4     0.0001128625480528
   5     0.2046920973796130
   6    -0.2929422931446948
   7     0.0001460915071197
   8     0.1244692925750419
   9    -0.2688763658187782
  10     0.0000341771562175
  11     0.0290457626251256
  12     0.0000129824259920
  13    -0.0000199673517089
  14     0.0177758083292672
  15    -0.0000031440009521
  16     0.0000087981434647
  17    -0.0000126468735023
  18     0.0002608241112659
  19    -0.2026961747433907
  20    -0.2932429828377654
  21     0.0002289705641640
  22    -0.1228199433441722
  23    -0.2687277801732249
  24    -0.0000331542512775
  25    -0.0288351782385971
  26     0.0000119107809482
  27     0.0000279419915611
  28     0.0189802900365049
  29     0.1413595907086152
  30     0.0899823997279084
  31    -0.0026936067899053
  32    -0.0015209950146356
  33    -0.0112534139938283
  34    -0.1413918339042062
  35    -0.0900115057170358
  36     0.0027069390260149
  37    -0.0015220763002047
  38    -0.0112506173370083
  39     0.1465397648838966
  40     0.0955077525763590
  41     0.0033991266155820
  42     0.0016384539382801
  43    -0.0108514284039170
  44    -0.1466106090411439
  45    -0.0955364801109347
  46    -0.0033792878416629
  47     0.0016474200371884
  48    -0.0108603751634221
 Ene=    0.000000
 Spin=  Alpha
 Occup=    0.523295
   1    -0.0000064282168273
   2     0.0000134650247096
   3     0.0000073508188167
   4     0.0002058687249577
   5     0.0953319035643931
   6    -0.3422697333265798
   7     0.0003669935452626
   8     0.2460731753944271
   9    -0.5738572977854312
  10    -0.0000259216411960
  11    -0.0226744385449138
  12    -0.0000207091311884
  13     0.0000218338638077
  14    -0.0296946636767893
  15     0.0000029971689295
  16     0.0000105535250915
  17    -0.0001110669670935
  18    -0.0002027445714754
  19     0.0972736094727143
  20     0.3456820132518579
  21    -0.0003211572782630
  22     0.2572291648998570
  23     0.5786756202075454
  24    -0.0000298417371545
  25    -0.0230325915837007
  26     0.0000220290775082
  27     0.0000176436112671
  28     0.0298695815696645
  29    -0.1034298010356180
  30    -0.1769001602179708
  31    -0.0051604949607708
  32     0.0077330312022488
  33    -0.0157719897351049
  34     0.1034287853011423
  35     0.1768529976863591
  36     0.0051797021821230
  37     0.0077356531438314
  38    -0.0157648323595683
  39     0.1062421807530368
  40     0.1889355285190427
  41    -0.0041832691890140
  42     0.0075443026460836
  43     0.0160762700551150
  44    -0.1062272815814560
  45    -0.1888377092913968
  46     0.0041693377548318
  47     0.0075507121126497
  48     0.0160767657242408
 Ene=    0.204297
 Spin=  Alpha
 Occup=    0.000000
   1     0.0711996496458902
   2    -0.1201680150715268
   3    -1.5465636122919488
   4    -0.1308674817270603
   5    -0.0000714273140112
   6    -0.0001161374074207
   7    -0.5246556218495941
   8    -0.0002862716155654
   9    -0.0004755635095424
  10     0.0028693876309689
  11    -0.0000078049881826
  12    -0.0037173723705527
  13    -0.0041375531856535
  14     0.0000052305276374
  15     0.0783215076666452
  16    -0.1313426933207742
  17    -1.5826672304328999
  18     0.1357285185925395
  19    -0.0001012151714191
  20     0.0001356608985130
  21     0.6024107123232916
  22    -0.0003434322223377
  23     0.0005784764953592
  24     0.0031001706143685
  25    -0.0000072487828940
  26     0.0038252025947492
  27    -0.0036544074414644
  28    -0.0000084059000425
  29     0.0019991647891515
  30     1.0822053187168801
  31    -0.0051675044888128
  32    -0.0013464671928937
  33    -0.0026252074195133
  34     0.0019724778343986
  35     1.0814995315295097
  36    -0.0051672708612208
  37     0.0013436674006748
  38     0.0026141510342495
  39     0.0014130946259479
  40     1.1508438345951240
  41     0.0044373874184176
  42     0.0021128226409024
  43    -0.0026957256778500
  44     0.0014517141628974
  45     1.1514536075875446
  46     0.0044316578357381
  47    -0.0021153594325487
  48     0.0027058923127069
 Ene=    0.230371
 Spin=  Alpha
 Occup=    0.000000
   1     0.0970887358482688
   2    -0.1250016846513113
   3    -2.2116717685362315
   4    -0.0813710156060028
   5    -0.0000566030794270
   6    -0.0001113053215508
   7    -0.2257773670666625
   8    -0.0000697206439297
   9    -0.0003423299455231
  10     0.0029778077416706
  11    -0.0000019998992679
  12     0.0011973188525225
  13     0.0064542617875956
  14     0.0000091589309302
  15    -0.0902980522611655
  16     0.1109988479058970
  17     2.0921497881701625
  18    -0.0795128364778381
  19    -0.0000972347769378
  20     0.0000081249582973
  21    -0.2134254436997475
  22    -0.0004387569627075
  23     0.0000824492117205
  24    -0.0025956010254006
  25    -0.0000064762740189
  26     0.0017333837195822
  27    -0.0075235146019941
  28    -0.0000022621319615
  29     0.0158494479820187
  30     1.2496688971120546
  31    -0.0005913581750219
  32    -0.0045299390932074
  33     0.0011484037262635
  34     0.0158334023784179
  35     1.2490724938660480
  36    -0.0005950167783569
  37     0.0045287130521168
  38    -0.0011532789360622
  39    -0.0171135700303779
  40    -1.1659983179280213
  41     0.0004415797779826
  42    -0.0050782681654438
  43    -0.0012961942566670
  44    -0.0170980361819535
  45    -1.1644902316162693
  46     0.0004500124060044
  47     0.0050749321004793
  48     0.0013042518503005
 Ene=    0.234517
 Spin=  Alpha
 Occup=    0.000000
   1    -0.0000598692342911
   2     0.0000788918555892
   3     0.0018852000351929
   4     0.0001984001588202
   5    -0.1965477941919909
   6    -0.1081358235548739
   7     0.0005691104822678
   8    -0.7197446054629196
   9    -0.4691115938945644
  10    -0.0000095917962947
  11    -0.0058564576451298
  12     0.0000063591365271
  13    -0.0000002004124027
  14     0.0102151582515719
  15     0.0000063529154936
  16     0.0000286540861561
  17    -0.0005342301433451
  18    -0.0000956083794621
  19    -0.2032227490998671
  20     0.1038530792137816
  21    -0.0007138608255521
  22    -0.6801181982119434
  23     0.4451616415459674
  24    -0.0000033141316972
  25    -0.0059105774933016
  26    -0.0000081615991300
  27     0.0000076253436666
  28    -0.0096593068465169
  29     0.0152685884867219
  30     1.1694813705822378
  31    -0.0034479011658331
  32    -0.0040932389029892
  33    -0.0044352890832183
  34    -0.0152857648382694
  35    -1.1715048362480946
  36     0.0034611541323933
  37    -0.0040997399876426
  38    -0.0044295368297046
  39    -0.0143414507064062
  40    -1.1173770468214406
  41    -0.0031621204177464
  42    -0.0035505517263080
  43     0.0041929843921151
  44     0.0143611000061807
  45     1.1175413972282715
  46     0.0031610203513367
  47    -0.0035512370101337
  48     0.0041914314544841
 Ene=    0.294745
 Spin=  Alpha
 Occup=    0.000000
   1    -0.0000103535878584
   2    -0.0000070867015807
   3     0.0011868595305772
   4    -0.0000147140084942
   5     0.1878929805261554
   6     0.0650332353560700
   7    -0.0004939128548193
   8     1.4925464199204055
   9     0.2218495461725005
  10    -0.0000044074693096
  11    -0.0012804967122655
  12     0.0000105237685021
  13    -0.0000077077681821
  14     0.0191961761212349
  15     0.0000126960480948
  16     0.0000013432473764
  17    -0.0007693625022427
  18    -0.0000610378967236
  19    -0.1929451468721536
  20     0.0728736204836592
  21    -0.0006080413777864
  22    -1.4680152734500200
  23     0.2191975674011753
  24     0.0000041350863693
  25     0.0008939223566947
  26     0.0000119957509508
  27    -0.0000008003669521
  28     0.0170959553749529
  29     0.0279845488724852
  30    -1.5555318345581610
  31     0.0123088330685199
  32     0.0079957828638281
  33     0.0022685488812001
  34    -0.0279876464240667
  35     1.5547914868291184
  36    -0.0123106692488416
  37     0.0079882103991443
  38     0.0022566787984875
  39     0.0224377778862737
  40    -1.5417063112084224
  41    -0.0121148852926676
  42    -0.0073804351641007
  43     0.0024821166157800
  44    -0.0224099551812557
  45     1.5419556187224612
  46     0.0121172373232798
  47    -0.0073784960485196
  48     0.0024964508476625
 Ene=    0.474931
 Spin=  Alpha
 Occup=    0.000000
   1    -0.0634094833792780
   2     0.1064414885882515
   3     4.8895902050178943
   4    -0.1570248092958249
   5    -0.0000387579624535
   6    -0.0000795530400987
   7    -3.4194799828628200
   8    -0.0002915099114701
   9    -0.0021944823157103
  10    -0.0031537215868048
  11    -0.0000105383752996
  12     0.0110746217380091
  13    -0.0228246144888452
  14    -0.0000308088818280
  15     0.0636315854443037
  16    -0.0955693983111359
  17    -4.9391655660845801
  18    -0.1633262948590295
  19     0.0000282268081515
  20    -0.0001351579947320
  21    -3.3761643119729490
  22    -0.0001139371594505
  23    -0.0023324784778629
  24    -0.0004284889708651
  25     0.0000108875914090
  26     0.0086154923678636
  27     0.0193994544860266
  28     0.0000185291046301
  29     0.1271840478924150
  30     0.2216181929185471
  31    -0.0073351998467767
  32     0.0064672801228321
  33     0.0026682284818952
  34     0.1273547898889148
  35     0.2214794906174767
  36    -0.0073139182239585
  37    -0.0064710364816007
  38    -0.0026700417094095
  39    -0.0855555390627679
  40    -0.2380719849109162
  41    -0.0079627829507540
  42     0.0050364974341303
  43    -0.0022455487383658
  44    -0.0859501371132691
  45    -0.2374003921346696
  46    -0.0079225660681917
  47    -0.0050283861031458
  48     0.0022295854324822
 Ene=    0.565023
 Spin=  Alpha
 Occup=    0.000000
   1     0.0917972988172379
   2    -0.7764704743414577
   3     0.5479084767828858
   4     0.3900906488000807
   5     0.0000774677137274
   6     0.0001759984533960
   7    -0.6543244255570172
   8    -0.0001934251567812
   9    -0.0006773746744611
  10     0.0302311067670902
  11    -0.0000592302217832
  12    -0.0025492410552214
  13    -0.0411941313668041
  14     0.0000430645649562
  15     0.0953066483284842
  16    -0.8296381067782883
  17     0.9005080136388085
  18    -0.3736981889089550
  19     0.0001226501892334
  20    -0.0002457217270980
  21     0.7996215498756838
  22    -0.0003498740565827
  23     0.0008079513437968
  24     0.0325565413198583
  25    -0.0000623432434091
  26     0.0038222741164427
  27    -0.0413723494358251
  28    -0.0000757186921778
  29     0.0559673335542126
  30    -0.2146502556188602
  31    -0.0323587370655820
  32     0.0027959471959497
  33     0.0016043724442917
  34     0.0554001052060691
  35    -0.2145393928120574
  36    -0.0324226102455737
  37    -0.0028013513507270
  38    -0.0016667522322358
  39     0.0180678906394296
  40    -0.1792458081956900
  41     0.0344765565241764
  42    -0.0035399277664781
  43     0.0019233346310014
  44     0.0190164052679856
  45    -0.1801382602045619
  46     0.0343973392371841
  47     0.0035372177590553
  48    -0.0018601509594040
 Ene=    0.627779
 Spin=  Alpha
 Occup=    0.000000
   1    -0.0019695846191554
   2     0.0187261537936497
   3    -0.0692874468108913
   4     0.0043427356488982
   5    -0.0824040186506800
   6     0.0641205457675198
   7    -0.0144417012367299
   8     0.4984203896024429
   9     0.3993622230470272
  10    -0.0015287710621708
  11    -0.0038536163336516
  12     0.0006420513250717
  13    -0.0010111269158682
  14    -0.0995628264893853
  15    -0.0020609137677349
  16     0.0168723371603161
  17    -0.0323282596973918
  18    -0.0035604981050772
  19    -0.0724621918088195
  20    -0.0490592998334225
  21     0.0331367527722246
  22     0.4954117212698316
  23    -0.3977822401695227
  24    -0.0014461964086677
  25    -0.0036607093827581
  26    -0.0004539679636185
  27    -0.0009837110713270
  28     0.1045397823183823
  29    -0.5290155397102899
  30     0.1272172105467024
  31    -0.0519259098921028
  32     0.0003200606134547
  33     0.0145239455906309
  34     0.5582789695012211
  35    -0.1029658959526909
  36     0.0509176110395904
  37    -0.0004881357970381
  38     0.0145987612083568
  39     0.5974478771328783
  40    -0.1802201967381384
  41    -0.0494244424984945
  42    -0.0006777334403772
  43    -0.0141135825911311
  44    -0.5705810007164589
  45     0.2043320512995342
  46     0.0505810030612359
  47     0.0000456087108975
  48    -0.0139764991448272
 Ene=    0.628238
 Spin=  Alpha
 Occup=    0.000000
   1     0.0714866902847430
   2    -0.6778274484805071
   3     2.3857654214288755
   4    -0.1431516528762330
   5    -0.0023334212436068
   6     0.0017039804012719
   7     0.5091601552437681
   8     0.0142616246454302
   9     0.0118788321024735
  10     0.0544472527159263
  11    -0.0001485845022400
  12    -0.0251095692048059
  13     0.0349022033316335
  14    -0.0028518546909859
  15     0.0728115895533022
  16    -0.5965288190171190
  17     1.1582281268442518
  18     0.1130072033485386
  19    -0.0021209144557935
  20    -0.0013464275801371
  21    -1.0697487560403047
  22     0.0145246634985474
  23    -0.0122322198654545
  24     0.0504535636305826
  25    -0.0001456400562714
  26     0.0180293670559367
  27     0.0332744686268750
  28     0.0030072732475235
  29    -0.5285206769786343
  30    -0.4260963331154585
  31     0.0148630249428679
  32    -0.0143637360566062
  33     0.0004927800472724
  34    -0.4971587039462987
  35    -0.4328280430648855
  36     0.0178480880631182
  37     0.0143578047229205
  38     0.0003599062179750
  39    -0.4389525310195823
  40    -0.4190781280449181
  41    -0.0190485400438150
  42     0.0117360884578940
  43     0.0008374244436610
  44    -0.4728398640300858
  45    -0.4077743231491368
  46    -0.0161560331808099
  47    -0.0117410212759523
  48    -0.0016814882563290
 Ene=    0.711856
 Spin=  Alpha
 Occup=    0.000000
   1    -0.0000153750042812
   2     0.0003074956511404
   3    -0.0018353606595634
   4     0.0004932583310692
   5     0.2027003222197836
   6    -0.6778407533027057
   7    -0.0000321372325432
   8    -0.2587457134235503
   9     0.6005114724772873
  10     0.0000472388416483
  11     0.0598520451081292
  12     0.0000266107878325
  13    -0.0000471315321116
  14     0.0058609241564917
  15     0.0000030249163570
  16    -0.0001906758020592
  17     0.0015675169576579
  18     0.0005441120837528
  19    -0.1917824235219399
  20    -0.6851725597641648
  21    -0.0000525956099526
  22     0.2565907163129387
  23     0.6003817959911411
  24    -0.0000546632988983
  25    -0.0596846304441656
  26     0.0000188479345558
  27     0.0000448547279107
  28     0.0099436316722848
  29     0.0277140466081702
  30    -0.0902933615736357
  31    -0.0105636834022617
  32     0.0073268990054616
  33    -0.0127000724103139
  34    -0.0272633937886435
  35     0.0905913788653603
  36     0.0105643383977589
  37     0.0073142065753288
  38    -0.0126896896815944
  39     0.0389877830419747
  40    -0.0949934561729028
  41     0.0090315400340706
  42    -0.0070568985207595
  43    -0.0119698376203997
  44    -0.0393808489707584
  45     0.0948929894458122
  46    -0.0090304350941875
  47    -0.0070638125217886
  48    -0.0119676069765618
 Ene=    0.729136
 Spin=  Alpha
 Occup=    0.000000
   1     0.0197498957333699
   2    -0.6205629306891751
   3     3.9909373330785098
   4    -0.1684642076763067
   5    -0.0000286261516836
   6    -0.0003590022023128
   7    -0.8048733480882795
   8    -0.0000143511518422
   9    -0.0005201946234948
  10     0.0519804212172603
  11    -0.0000109572032982
  12    -0.0485005853925974
  13     0.0086823492163222
  14     0.0000871690020817
  15    -0.0186224192440826
  16     0.6205056826120664
  17    -4.1859344018489839
  18    -0.2140987186245754
  19     0.0000523035147903
  20    -0.0004835660643259
  21    -0.5859444890872476
  22    -0.0006549997174837
  23     0.0002049620976153
  24    -0.0582310410603431
  25     0.0000272725165318
  26    -0.0506595007750158
  27    -0.0173620735068638
  28     0.0000090318948124
  29    -0.5106680993396788
  30    -0.2765117735984118
  31     0.0098316324105381
  32    -0.0196467150238787
  33    -0.0105431989663296
  34    -0.5111915157648789
  35    -0.2759832714247992
  36     0.0097342001071419
  37     0.0196671399344839
  38     0.0105446616621026
  39     0.5924539109749916
  40     0.3278461682604724
  41     0.0180716651226041
  42    -0.0226194633370872
  43     0.0102949892640237
  44     0.5929889138698579
  45     0.3280280299881660
  46     0.0180970778866579
  47     0.0225903645066166
  48    -0.0102658148691853
 Ene=    0.798635
 Spin=  Alpha
 Occup=    0.000000
   1    -0.0000083768428455
   2     0.0000226245621428
   3     0.0001035440494790
   4     0.0004421433495102
   5     0.2349230305274286
   6    -0.7261454458965857
   7    -0.0006982483032067
   8    -0.2541478730562639
   9     1.0227399110973727
  10    -0.0000258759843401