[Molden Format]
[Atoms] Angs
 c       1                    6  6.995000000000e-01  0.000000000000e+00 -1.000000000000e-03
 c       2                    6 -6.505000000000e-01 -1.000000000000e-04 -1.900000000000e-03
 h       3                    1  1.259500000000e+00  9.083000000000e-01  2.486000000000e-01
 h       4                    1  1.260000000000e+00 -9.082000000000e-01 -2.499000000000e-01
 h       5                    1 -1.250800000000e+00 -9.009000000000e-01  2.321000000000e-01
 h       6                    1 -1.250100000000e+00  9.010000000000e-01 -2.368000000000e-01
[GTO]
1
 s           5
      1.238401693800e+03      5.517365048110e-03
      1.862900499200e+02      4.108882855595e-02
      4.225117634600e+01      1.822538212649e-01
      1.167655793200e+01      4.682845943743e-01
      3.593050648200e+00      4.457581733600e-01
 s           1
      4.024514736300e-01      1.000000000000e+00
 s           1
      1.309018266800e-01      1.000000000000e+00
 p           3
      9.468097062100e+00      5.688833201104e-02
      2.010354514200e+00      3.129405933647e-01
      5.477100470700e-01      7.606501650914e-01
 p           1
      1.526861379500e-01      1.000000000000e+00
 d           1
      8.000000000000e-01      1.000000000000e+00

2
 s           5
      1.238401693800e+03      5.517365048110e-03
      1.862900499200e+02      4.108882855595e-02
      4.225117634600e+01      1.822538212649e-01
      1.167655793200e+01      4.682845943743e-01
      3.593050648200e+00      4.457581733600e-01
 s           1
      4.024514736300e-01      1.000000000000e+00
 s           1
      1.309018266800e-01      1.000000000000e+00
 p           3
      9.468097062100e+00      5.688833201104e-02
      2.010354514200e+00      3.129405933647e-01
      5.477100470700e-01      7.606501650914e-01
 p           1
      1.526861379500e-01      1.000000000000e+00
 d           1
      8.000000000000e-01      1.000000000000e+00

3
 s           3
      1.301070100000e+01      3.348548481299e-02
      1.962257200000e+00      2.347218708812e-01
      4.445379600000e-01      8.137702852596e-01
 s           1
      1.219496200000e-01      1.000000000000e+00
 p           1
      8.000000000000e-01      1.000000000000e+00

4
 s           3
      1.301070100000e+01      3.348548481299e-02
      1.962257200000e+00      2.347218708812e-01
      4.445379600000e-01      8.137702852596e-01
 s           1
      1.219496200000e-01      1.000000000000e+00
 p           1
      8.000000000000e-01      1.000000000000e+00

5
 s           3
      1.301070100000e+01      3.348548481299e-02
      1.962257200000e+00      2.347218708812e-01
      4.445379600000e-01      8.137702852596e-01
 s           1
      1.219496200000e-01      1.000000000000e+00
 p           1
      8.000000000000e-01      1.000000000000e+00

6
 s           3
      1.301070100000e+01      3.348548481299e-02
      1.962257200000e+00      2.347218708812e-01
      4.445379600000e-01      8.137702852596e-01
 s           1
      1.219496200000e-01      1.000000000000e+00
 p           1
      8.000000000000e-01      1.000000000000e+00


[5D]
[7F]
[9G]
[MO]
 Ene=  -11.244253
 Spin=  Alpha
 Occup=    2.000000
   1     0.3070822529219042
   2     0.0083610779468931
   3    -0.0003562600572409
   4     0.0014322731304248
   5     0.0000000812776821
   6     0.0000009669571659
   7    -0.0015478459818873
   8    -0.0000000145963724
   9    -0.0000009093392532
  10     0.0001022765419724
  11    -0.0000002247463857
  12     0.0001203024938063
  13    -0.0000719303563818
  14     0.0000001710691094
  15     0.9421682454828778
  16     0.0326918255324479
  17    -0.0199877897632931
  18    -0.0008564345598987
  19     0.0000000842448169
  20    -0.0000006324725936
  21    -0.0003099884951341
  22    -0.0000009709106290
  23     0.0000000211038837
  24    -0.0012992372836954
  25     0.0000014618553213
  26    -0.0005835629154760
  27     0.0002311523388891
  28     0.0000012362219959
  29    -0.0004666803807492
  30     0.0013941816946378
  31    -0.0002605309338765
  32     0.0001859287001409
  33     0.0000442704927481
  34    -0.0004666365200722
  35     0.0013946449868119
  36    -0.0002604643999041
  37    -0.0001858524953175
  38    -0.0000445831837494
  39    -0.0020884502169949
  40     0.0046106463997170
  41    -0.0004936217232199
  42    -0.0011683366548145
  43     0.0002890191425549
  44    -0.0020871281632812
  45     0.0046107537676635
  46    -0.0004927083906966
  47     0.0011681645070224
  48    -0.0002896557993506
 Ene=  -11.241769
 Spin=  Alpha
 Occup=    2.000000
   1     0.9420846636276028
   2     0.0345498552662822
   3    -0.0250206423304250
   4    -0.0000669283904307
   5     0.0000001083079487
   6    -0.0000001339889785
   7     0.0015236249118857
   8     0.0000008561046961
   9     0.0000010819111726
  10    -0.0016482046488647
  11     0.0000019381190046
  12     0.0007123755632178
  13     0.0001470952261395
  14    -0.0000006385159462
  15    -0.3068986325942737
  16    -0.0134564516829657
  17     0.0145720567118627
  18    -0.0011479944749326
  19    -0.0000002286189408
  20    -0.0000007383587520
  21     0.0020083833581820
  22    -0.0000012534863661
  23     0.0000016267758784
  24     0.0010315602854608
  25    -0.0000013139726731
  26     0.0002524546371512
  27    -0.0002286483130759
  28    -0.0000005011568509
  29    -0.0023028253359217
  30     0.0049669844114870
  31     0.0007794826243799
  32     0.0012423342482082
  33     0.0003273553971557
  34    -0.0023025513975993
  35     0.0049672733282561
  36     0.0007801685277074
  37    -0.0012422918233276
  38    -0.0003264024855966
  39     0.0008844416671663
  40    -0.0018706815548643
  41     0.0006467170667929
  42     0.0005472263459401
  43    -0.0001386654988450
  44     0.0008848397060961
  45    -0.0018685410497566
  46     0.0006467077266332
  47    -0.0005474468110550
  48     0.0001395812580361
 Ene=   -1.014020
 Spin=  Alpha
 Occup=    2.000000
   1     0.2004592030172733
   2    -0.3843998965568194
   3    -0.1197726941247270
   4     0.1171330058501223
   5     0.0000016650148481
   6     0.0000788517921071
   7     0.0200415553913730
   8     0.0000020552315125
   9     0.0000141664203461
  10     0.0096087490766415
  11    -0.0000204016910607
  12    -0.0012942868853797
  13    -0.0139369148743142
  14    -0.0000012785047115
  15     0.1982579079575325
  16    -0.3820499205697344
  17    -0.1227656119602932
  18    -0.1185546571135432
  19    -0.0000164880497225
  20    -0.0000758310362452
  21    -0.0230685034428743
  22    -0.0000041007749496
  23    -0.0000145932516585
  24     0.0097650144663574
  25    -0.0000204988232730
  26     0.0011643490552873
  27    -0.0143491629890512
  28    -0.0000036040721199
  29    -0.1078620939902413
  30    -0.0098227214981876
  31     0.0091263118044516
  32     0.0127943253400226
  33     0.0037361073366042
  34    -0.1078507308920356
  35    -0.0098192172417723
  36     0.0091322371937744
  37    -0.0127917298948874
  38    -0.0037241461489800
  39    -0.1027748548334443
  40    -0.0100236946285172
  41    -0.0089638740437852
  42    -0.0118396689459576
  43     0.0033044645561505
  44    -0.1027888158893742
  45    -0.0100226280686670
  46    -0.0089556133276753
  47     0.0118451028781823
  48    -0.0033180298459507
 Ene=   -0.778858
 Spin=  Alpha
 Occup=    2.000000
   1     0.1510565791988775
   2    -0.3030040609413109
   3    -0.1188579209305699
   4    -0.1557440414101366
   5    -0.0000160315896383
   6    -0.0001018060482030
   7    -0.0645422520935061
   8    -0.0000057713756215
   9    -0.0000422355439777
  10     0.0041010106437063
  11     0.0000028759485613
  12    -0.0044194614073798
  13     0.0102916270286516
  14     0.0000039401710595
  15    -0.1536138150151093
  16     0.3091757946494521
  17     0.1224448618409318
  18    -0.1614275302022883
  19    -0.0000188232914399
  20    -0.0001053187028425
  21    -0.0652893216161759
  22    -0.0000081856176947
  23    -0.0000426149238927
  24    -0.0044120164748205
  25    -0.0000021133784408
  26    -0.0040884717893784
  27    -0.0096647666053308
  28     0.0000061186402193
  29    -0.1904240415340739
  30    -0.0375316548761391
  31     0.0069259591574250
  32     0.0163056559322080
  33     0.0050844043512774
  34    -0.1904184616648156
  35    -0.0375317466133767
  36     0.0069357898468302
  37    -0.0163039743404178
  38    -0.0050758661428129
  39     0.1943805907800299
  40     0.0391136811513864
  41     0.0076975903007939
  42     0.0164460098522229
  43    -0.0049012685904986
  44     0.1943058252858812
  45     0.0391053590613607
  46     0.0076780915564643
  47    -0.0164446392737982
  48     0.0049114335310615
 Ene=   -0.628876
 Spin=  Alpha
 Occup=    2.000000
   1    -0.0000138263287232
   2     0.0000290804103222
   3     0.0000133372465193
   4     0.0001740805153240
   5    -0.3225151283179204
   6    -0.0526974704066478
   7     0.0000724999402403
   8    -0.1250350215783828
   9    -0.0162974622829322
  10    -0.0000042891898238
  11    -0.0042355611020450
  12    -0.0000009052667226
  13    -0.0000005914144681
  14    -0.0041742826672725
  15    -0.0000035981177883
  16     0.0000044045241228
  17     0.0000325049220897
  18    -0.0001329776572245
  19    -0.2957644796936749
  20     0.0364978405588906
  21    -0.0000295860009397
  22    -0.1211008602301637
  23     0.0107342876720085
  24    -0.0000051531695619
  25    -0.0045757422696833
  26     0.0000027958294952
  27     0.0000074427790872
  28     0.0021416553366157
  29    -0.2213030039422939
  30    -0.0647609608116262
  31     0.0096925567878714
  32     0.0096942498110361
  33     0.0035162360513104
  34     0.2214210936854844
  35     0.0647943527671165
  36    -0.0096997151651281
  37     0.0097010187888233
  38     0.0035066137648567
  39     0.1956706593540735
  40     0.0562037936501882
  41     0.0091348806863112
  42     0.0083409519664684
  43    -0.0030336480478934
  44    -0.1956166840321554
  45    -0.0561913786285850
  46    -0.0091273040881334
  47     0.0083400518327170
  48    -0.0030456136772624
 Ene=   -0.584548
 Spin=  Alpha
 Occup=    2.000000
   1    -0.0096603300527202
   2     0.0292637549777178
   3    -0.0300624235148883
   4    -0.4059340063009609
   5    -0.0002296916083144
   6    -0.0003199114670618
   7    -0.1475551095253131
   8    -0.0000915016983001
   9    -0.0001181543446557
  10     0.0004900695889589
  11     0.0000128892553480
  12    -0.0040786019846023
  13     0.0199546874640632
  14    -0.0000020173365097
  15    -0.0153785595255358
  16     0.0410614017228648
  17    -0.0248706612601520
  18     0.4032982358485227
  19     0.0000195957080777
  20     0.0002383972600986
  21     0.1452850149529441
  22    -0.0000006600986766
  23     0.0000834797723176
  24     0.0007782664134215
  25     0.0000103326841325
  26     0.0034763628639734
  27     0.0186682279720499
  28    -0.0000144947645918
  29    -0.1704029878561527
  30    -0.0585432733657218
  31    -0.0012360678448124
  32     0.0115101757174075
  33     0.0034395149559447
  34    -0.1701074861264106
  35    -0.0584419598437132
  36    -0.0012421081999017
  37    -0.0114985420525835
  38    -0.0034378772024786
  39    -0.1679020664887738
  40    -0.0576443939959398
  41     0.0004821414936090
  42    -0.0114362081592919
  43     0.0032502354925245
  44    -0.1677547136423900
  45    -0.0575990619773307
  46     0.0004992865607158
  47     0.0114302329541618
  48    -0.0032493802863975
 Ene=   -0.517566
 Spin=  Alpha
 Occup=    2.000000
   1     0.0000198860567450
   2    -0.0000493619932317
   3     0.0000149293625211
   4     0.0002837726706640
   5    -0.2458624090502566
   6    -0.1546070676581508
   7     0.0001135413508911
   8    -0.1147722291408376
   9    -0.0786836928754080
  10     0.0000053576452945
  11     0.0052998146021805
  12    -0.0000150169157539
  13    -0.0000059979580601
  14    -0.0246196448840013
  15     0.0000084634239601
  16    -0.0000197626854041
  17    -0.0000126061748678
  18    -0.0000490238867068
  19     0.2762886148462521
  20    -0.1544372226464079
  21    -0.0000319940908870
  22     0.1318252065776198
  23    -0.0787215702588594
  24    -0.0000058663805520
  25    -0.0051513144337690
  26    -0.0000220005067744
  27    -0.0000127043312110
  28    -0.0255468025150251
  29    -0.2320588504916089
  30    -0.0984086745746569
  31     0.0085613373435794
  32     0.0088641974009151
  33     0.0007262354808917
  34     0.2321656999705932
  35     0.0984558657364316
  36    -0.0085609850952525
  37     0.0088697526766138
  38     0.0007178612233920
  39    -0.2516629646327262
  40    -0.1080688652151956
  41    -0.0100619831333330
  42    -0.0091186416995090
  43     0.0009042715244059
  44     0.2518445608308527
  45     0.1081480531642791
  46     0.0100548202655876
  47    -0.0091365346076147
  48     0.0009225899777285
 Ene=   -0.353697
 Spin=  Alpha
 Occup=    2.000000
   1    -0.0000037856439078
   2     0.0000087707875013
   3     0.0000022572430399
   4     0.0001926569751386
   5     0.1483373012335073
   6    -0.3477811491967746
   7     0.0001756243192656
   8     0.1067804839966351
   9    -0.2915533337451467
  10     0.0000323809298222
  11     0.0278110619204863
  12     0.0000090674805154
  13    -0.0000199834604603
  14     0.0117256835223649
  15     0.0000000962082223
  16     0.0000012492637864
  17    -0.0000080388137580
  18     0.0002593057390631
  19    -0.1439516905936800
  20    -0.3488203682573557
  21     0.0002239319975368
  22    -0.1035622506154994
  23    -0.2924111084325530
  24    -0.0000317939717021
  25    -0.0275806098925403
  26     0.0000072714858083
  27     0.0000224636014859
  28     0.0126006328834553
  29     0.0821737139004171
  30     0.0622713906760997
  31    -0.0005851873014087
  32     0.0007349365384863
  33    -0.0108273497309644
  34    -0.0821826215631802
  35    -0.0622876248146435
  36     0.0005984008100097
  37     0.0007346308728288
  38    -0.0108263043803648
  39     0.0850945862355286
  40     0.0656608219012624
  41     0.0010214373279915
  42    -0.0005584799855917
  43    -0.0104429915737729
  44    -0.0851230731604019
  45    -0.0656773383789653
  46    -0.0010039623485646
  47    -0.0005533340703865
  48    -0.0104456050410296
 Ene=    0.142435
 Spin=  Alpha
 Occup=    0.000000
   1    -0.0000067780482064
   2     0.0000142806131311
   3     0.0000610882424973
   4     0.0001889449211020
   5     0.1038732467747965
   6    -0.3233214692167268
   7     0.0003918985408499
   8     0.2164436169086190
   9    -0.6390724247005454
  10    -0.0000239732486303
  11    -0.0208593888901052
  12    -0.0000083514976822
  13     0.0000155965700046
  14    -0.0101401032469170
  15    -0.0000005466326659
  16     0.0000070263547782
  17    -0.0000384847536299
  18    -0.0002162958046093
  19     0.1033194070600162
  20     0.3254259016162778
  21    -0.0004217020748270
  22     0.2205349764633818
  23     0.6427804487839672
  24    -0.0000251468285930
  25    -0.0208191452442028
  26     0.0000064612158064
  27     0.0000165559740840
  28     0.0101470215103630
  29    -0.0606632152483591
  30    -0.1792584630886216
  31    -0.0025022376270276
  32     0.0055189460193099
  33    -0.0155872511278685
  34     0.0606693571082558
  35     0.1791911975489580
  36     0.0025214082483576
  37     0.0055198286936726
  38    -0.0155836987635140
  39     0.0616397657740079
  40     0.1878958947067511
  41    -0.0020818591922032
  42     0.0052904119962449
  43     0.0158283785130829
  44    -0.0616444386171185
  45    -0.1879287400787058
  46     0.0020619071310357
  47     0.0052905876091444
  48     0.0158237538167806
 Ene=    0.206657
 Spin=  Alpha
 Occup=    0.000000
   1     0.0711346081085919
   2    -0.1175045028163877
   3    -1.5592801140493273
   4    -0.1327365280981249
   5    -0.0000609104895022
   6    -0.0001231949253131
   7    -0.5253611692896329
   8    -0.0002693543343072
   9    -0.0004755012403416
  10     0.0028215400119083
  11    -0.0000084244210544
  12    -0.0038659497910703
  13    -0.0043432177518519
  14     0.0000039869646926
  15     0.0774611138882386
  16    -0.1274802709011695
  17    -1.5792011150363023
  18     0.1368748924276307
  19    -0.0000846160912104
  20     0.0001391254910086
  21     0.6001130702721394
  22    -0.0002831899800845
  23     0.0005717773452893
  24     0.0030381380107450
  25    -0.0000077455352567
  26     0.0040257825608358
  27    -0.0039104518794986
  28    -0.0000079732740036
  29     0.0016244088273300
  30     1.0890091075450732
  31    -0.0051899731807224
  32    -0.0016404523095922
  33    -0.0025042032587649
  34     0.0016026702405261
  35     1.0883802410583783
  36    -0.0051894898924229
  37     0.0016380074603099
  38     0.0024924620188117
  39     0.0006719342372278
  40     1.1474539454071115
  41     0.0044926664707166
  42     0.0024001546366497
  43    -0.0025969579896315
  44     0.0007080105469046
  45     1.1478963767541230
  46     0.0044861211823564
  47    -0.0024031731896831
  48     0.0026074928708861
 Ene=    0.232524
 Spin=  Alpha
 Occup=    0.000000
   1     0.0965546661962336
   2    -0.1235431671532957
   3    -2.2010689472977463
   4    -0.0827385332986799
   5    -0.0001118179791680
   6    -0.0001291990354276
   7    -0.2258168265987461
   8    -0.0002543130327414
   9    -0.0004439083556124
  10     0.0033223152758981
  11    -0.0000034759448613
  12     0.0006649703611640
  13     0.0060575526986029
  14     0.0000123120728524
  15    -0.0904494492633080
  16     0.1110386463662552
  17     2.0949113353226059
  18    -0.0815892345999403
  19    -0.0001583139030484
  20     0.0000250974285382
  21    -0.2190565876593172
  22    -0.0006523401179653
  23     0.0001819252830602
  24    -0.0029806555525261
  25    -0.0000070543222751
  26     0.0011467396279765
  27    -0.0070613024357923
  28    -0.0000038161436687
  29     0.0135554150169754
  30     1.2467587127010851
  31    -0.0006711176156913
  32    -0.0048739336141489
  33     0.0012705935919105
  34     0.0135285718760697
  35     1.2455583180231402
  36    -0.0006735692390540
  37     0.0048697685071781
  38    -0.0012764260661563
  39    -0.0147680008195900
  40    -1.1727836831873402
  41     0.0002683846461510
  42    -0.0054421737252674
  43    -0.0013627774575312
  44    -0.0147443736815078
  45    -1.1706114141277928
  46     0.0002788236312657
  47     0.0054362693799557
  48     0.0013719718913114
 Ene=    0.237299
 Spin=  Alpha
 Occup=    0.000000
   1    -0.0000819422214555
   2     0.0001044104255806
   3     0.0023968813359570
   4     0.0002143436837843
   5    -0.1985042718597831
   6    -0.1049513730845471
   7     0.0006049910193533
   8    -0.7299462658192184
   9    -0.4651190562137931
  10    -0.0000108152953538
  11    -0.0060101785461299
  12     0.0000056194052435
  13    -0.0000015628989721
  14     0.0094315524202580
  15     0.0000349608220969
  16    -0.0000089657185604
  17    -0.0011768021613158
  18    -0.0000642723830404
  19    -0.2039635151866130
  20     0.1004924477125366
  21    -0.0006163207193397
  22    -0.6831789490040663
  23     0.4402488963729842
  24    -0.0000025861203000
  25    -0.0060863767084340
  26    -0.0000077235451666
  27     0.0000091668818541
  28    -0.0089557108958183
  29     0.0142340373817177
  30     1.1775046233433026
  31    -0.0034954736924787
  32    -0.0046927328922865
  33    -0.0042697658715256
  34    -0.0142550725738373
  35    -1.1800928297426034
  36     0.0035088283893092
  37    -0.0047023462220853
  38    -0.0042628544062329
  39    -0.0134733471097422
  40    -1.1177592826115235
  41    -0.0032018176155630
  42    -0.0041115542558849
  43     0.0040124536078240
  44     0.0134992773868330
  45     1.1186786165589269
  46     0.0032017412839971
  47    -0.0041160193826986
  48     0.0040101570301745
 Ene=    0.296994
 Spin=  Alpha
 Occup=    0.000000
   1    -0.0000106423460269
   2    -0.0000063182092104
   3     0.0011969930032980
   4    -0.0000144180130350
   5     0.1858977172918554
   6     0.0646512375146211
   7    -0.0005028067648647
   8     1.4897290884132679
   9     0.2253988850497662
  10    -0.0000032421821338
  11    -0.0001452454278525
  12     0.0000113702256682
  13    -0.0000086114914502
  14     0.0198638320324832
  15     0.0000156400316605
  16    -0.0000028303003917
  17    -0.0008307281598572
  18    -0.0000559753897366
  19    -0.1927990738295821
  20     0.0707293448513251
  21    -0.0005993774264457
  22    -1.4704677862033289
  23     0.2209715982284157
  24     0.0000028784399647
  25    -0.0001600134483169
  26     0.0000123400823667
  27    -0.0000001693490187
  28     0.0176082040918065
  29     0.0294864151273612
  30    -1.5542736344306134
  31     0.0127496824491542
  32     0.0081984596450779
  33     0.0027363901841561
  34    -0.0294868208597970
  35     1.5535294796057038
  36    -0.0127523487838573
  37     0.0081906416496049
  38     0.0027240912806072
  39     0.0236096654964218
  40    -1.5476076823619036
  41    -0.0125621958111205
  42    -0.0076658453828483
  43     0.0028545701252794
  44    -0.0235790385433569
  45     1.5479296568970660
  46     0.0125646664784879
  47    -0.0076646215537411
  48     0.0028694415447910
 Ene=    0.477063
 Spin=  Alpha
 Occup=    0.000000
   1    -0.0630773724097728
   2     0.1069954361016855
   3     4.8838249571485148
   4    -0.1506280559785127
   5    -0.0000364089474384
   6    -0.0000789439480052
   7    -3.4284450376063424
   8    -0.0002939937297688
   9    -0.0022113613045785
  10    -0.0041247363573562
  11    -0.0000101113086813
  12     0.0110622595942227
  13    -0.0228486855031611
  14    -0.0000304250504741
  15     0.0632788964545793
  16    -0.0964179814419337
  17    -4.9358461577484674
  18    -0.1588945242151633
  19     0.0000282466603362
  20    -0.0001282831194693
  21    -3.3809623985254955
  22    -0.0001111989747518
  23    -0.0023269965601458
  24     0.0005117821483439
  25     0.0000097419691923
  26     0.0086084076887765
  27     0.0191347797909486
  28     0.0000180992391514
  29     0.1329528374546936
  30     0.2220114605231548
  31    -0.0068948891058327
  32     0.0062903800708118
  33     0.0023135275726566
  34     0.1331204123821491
  35     0.2218715472452470
  36    -0.0068738416315926
  37    -0.0062935097124165
  38    -0.0023154743240219
  39    -0.0899795203195346
  40    -0.2381325740568641
  41    -0.0074190892707529
  42     0.0048398486403347
  43    -0.0018454079976375
  44    -0.0903689025095136
  45    -0.2374728613297530
  46    -0.0073770187125012
  47    -0.0048300036032744
  48     0.0018307715392501
 Ene=    0.569432
 Spin=  Alpha
 Occup=    0.000000
   1    -0.0930745241866699
   2     0.7826488019431636
   3    -0.5487117769557089
   4    -0.3911839594527525
   5    -0.0000713986954046
   6    -0.0001923198667440
   7     0.6467048069346023
   8     0.0002087489145516
   9     0.0006200953742599
  10    -0.0315328649016706
  11     0.0000588083579075
  12     0.0025968434175590
  13     0.0400290152949006
  14    -0.0000434889882824
  15    -0.0963284611093210
  16     0.8348894498215850
  17    -0.9131665557095302
  18     0.3742530810908226
  19    -0.0001218915695621
  20     0.0002584752420768
  21    -0.8005644055949540
  22     0.0003781442366651
  23    -0.0007542727582555
  24    -0.0337148017054948
  25     0.0000621246953992
  26    -0.0036985276748013
  27     0.0403252863853498
  28     0.0000756030494652
  29    -0.0531059270432436
  30     0.2138815225322002
  31     0.0318617494573584
  32    -0.0025317534946524
  33    -0.0017596072909681
  34    -0.0525313506109653
  35     0.2137941181044798
  36     0.0319264731093565
  37     0.0025383004341809
  38     0.0018192243848673
  39    -0.0164569059056697
  40     0.1790423368340379
  41    -0.0340567276816377
  42     0.0034172979972670
  43    -0.0020108999217572
  44    -0.0174132850993218
  45     0.1798926864250442
  46    -0.0339752818334357
  47    -0.0034120724690639
  48     0.0019505124431526
 Ene=    0.628680
 Spin=  Alpha
 Occup=    0.000000
   1     0.0718293044361605
   2    -0.6759330249451787
   3     2.3926890731394814
   4    -0.1469073240944229
   5     0.0002878163371244
   6    -0.0003144771718959
   7     0.5114791960986185
   8    -0.0017532743779705
   9    -0.0006789360270312
  10     0.0543249725040537
  11    -0.0000215188098862
  12    -0.0241722232997435
  13     0.0350361014001727
  14     0.0003327005286222
  15     0.0733094392838909
  16    -0.5962951710403158
  17     1.1567420486669751
  18     0.1172460998366725
  19     0.0001792247781125
  20     0.0001869882312286
  21    -1.0838573548718051
  22    -0.0014059672581422
  23     0.0002731295370358
  24     0.0508050996237633
  25    -0.0000266772348573
  26     0.0175099358829106
  27     0.0335976319313127
  28    -0.0003360572787908
  29    -0.5084091531362691
  30    -0.4317412000713738
  31     0.0165910471817762
  32    -0.0135547718717395
  33    -0.0000158499891146
  34    -0.5118451830482281
  35    -0.4312139676586558
  36     0.0162818291243207
  37     0.0135485359563896
  38    -0.0000558271767069
  39    -0.4580874382117679
  40    -0.4158502216070010
  41    -0.0176282162982525
  42     0.0111396888790190
  43     0.0012671791243626
  44    -0.4545925229313653
  45    -0.4167144347089750
  46    -0.0179372051692718
  47    -0.0111287739776147
  48    -0.0012202630919996
 Ene=    0.633119
 Spin=  Alpha
 Occup=    0.000000
   1     0.0003174498147448
   2    -0.0029570878349328
   3     0.0071395455940215
   4    -0.0002475135626526
   5    -0.0780507191272309
   6     0.0529271140416871
   7     0.0018584540433831
   8     0.5252601915330886
   9     0.3322713791234644
  10     0.0002127692091582
  11    -0.0049392528825139
  12    -0.0001584304120550
  13     0.0001068505105108
  14    -0.0998411702555392
  15     0.0002716875392869
  16    -0.0022023323323624
  17     0.0045999662393618
  18     0.0000563512874304
  19    -0.0683719227234013
  20    -0.0372579032007319
  21    -0.0011916591909743
  22     0.5221635577154025
  23    -0.3312640638051554
  24     0.0001676899912507
  25    -0.0044552048537743
  26     0.0001207239394186
  27     0.0000829502178447
  28     0.1047197784318505
  29    -0.5503027498764315
  30     0.0957663232821688
  31    -0.0523147380056891
  32     0.0007869173879088
  33     0.0134092437355210
  34     0.5467603361435549
  35    -0.0990054741150230
  36     0.0523541690535732
  37     0.0008924372031068
  38     0.0134812590090968
  39     0.5874069475494011
  40    -0.1740842629208718
  41    -0.0507290347074958
  42     0.0006374052854569
  43    -0.0128874278531159
  44    -0.5896765921002517
  45     0.1717485522175936
  46     0.0507550282201818
  47     0.0006140529934514
  48    -0.0128307365707274
 Ene=    0.711545
 Spin=  Alpha
 Occup=    0.000000
   1    -0.0000116315767802
   2     0.0002291731301997
   3    -0.0013860197696524
   4     0.0004751055363175
   5     0.2045295418563230
   6    -0.6755511838516765
   7    -0.0001185891484971
   8    -0.2786156457873818
   9     0.5994109983656462
  10     0.0000541973397527
  11     0.0612077754858921
  12     0.0000210475602791
  13    -0.0000472236011182
  14     0.0055769491082466
  15     0.0000011747300845
  16    -0.0001229907816257
  17     0.0011027139558820
  18     0.0005162566066613
  19    -0.1935318370328173
  20    -0.6812333469070261
  21    -0.0001058368130325
  22     0.2773910109244826
  23     0.5979789957498505
  24    -0.0000632516453570
  25    -0.0611329273887937
  26     0.0000129252209490
  27     0.0000430262188674
  28     0.0097488515673143
  29     0.0259015074273742
  30    -0.0786819163820027
  31    -0.0111373809867819
  32     0.0064633484894687
  33    -0.0125187204207731
  34    -0.0255605421242236
  35     0.0789108030159894
  36     0.0111405403490782
  37     0.0064546794969799
  38    -0.0125059179102957
  39     0.0379444579780387
  40    -0.0829335465961199
  41     0.0096068124121457
  42    -0.0061557446525921
  43    -0.0117078253120889
  44    -0.0381950918046973
  45     0.0829038937872950
  46    -0.0096008086482670
  47    -0.0061566625428548
  48    -0.0117097812552631
 Ene=    0.735561
 Spin=  Alpha
 Occup=    0.000000
   1    -0.0215639592370281
   2     0.6365050816951667
   3    -4.0929241909896588
   4     0.1700587773026308
   5     0.0000463187431013
   6     0.0002877846854176
   7     0.8349280752608323
   8     0.0000267961363900
   9     0.0005840428803844
  10    -0.0505545780594162
  11     0.0000161944396316
  12     0.0471170224144682
  13    -0.0083933968392067
  14    -0.0000870166077373
  15     0.0203797510032222
  16    -0.6351547620709522
  17     4.2829235228710312
  18     0.2157645535831867
  19    -0.0000821625645469
  20     0.0004040096865286
  21     0.6182417939378798
  22     0.0007054820840865
  23    -0.0000893030282399
  24     0.0564677384572320
  25    -0.0000324224214801
  26     0.0490736031668078
  27     0.0169133650171694
  28    -0.0000054693030559
  29     0.5073680918977476
  30     0.2918180024289818
  31    -0.0098393720568857
  32     0.0183806552609427
  33     0.0110396227823835
  34     0.5079134049591826
  35     0.2913379996849058
  36    -0.0097359731743615
  37    -0.0183974224496964
  38    -0.0110434875802410
  39    -0.5866533466007350
  40    -0.3425798512232539
  41    -0.0179973009075221
  42     0.0211135049969747
  43    -0.0108045054173688
  44    -0.5872149094407251
  45    -0.3427575816845619
  46    -0.0180228654748969
  47    -0.0210839270450845
  48     0.0107726422568140
 Ene=    0.806525
 Spin=  Alpha
 Occup=    0.000000
   1    -0.0000071789634042
   2     0.0000187651574571
   3     0.0000382012709605
   4     0.0004470807223901
   5     0.2319242500834166
   6    -0.7369253195476326
   7    -0.0006566332318330
   8    -0.2276840684126435
   9     1.0158208252524881
  10    -0.0000294467357176