[Molden Format]
[Atoms] Angs
 c       1                    6  7.095000000000e-01  0.000000000000e+00 -1.000000000000e-03
 c       2                    6 -6.442000000000e-01 -1.000000000000e-04 -1.900000000000e-03
 h       3                    1  1.268900000000e+00  8.842000000000e-01  3.258000000000e-01
 h       4                    1  1.269500000000e+00 -8.841000000000e-01 -3.271000000000e-01
 h       5                    1 -1.257300000000e+00 -8.737000000000e-01  3.095000000000e-01
 h       6                    1 -1.256400000000e+00  8.738000000000e-01 -3.143000000000e-01
[GTO]
1
 s           5
      1.238401693800e+03      5.517365048110e-03
      1.862900499200e+02      4.108882855595e-02
      4.225117634600e+01      1.822538212649e-01
      1.167655793200e+01      4.682845943743e-01
      3.593050648200e+00      4.457581733600e-01
 s           1
      4.024514736300e-01      1.000000000000e+00
 s           1
      1.309018266800e-01      1.000000000000e+00
 p           3
      9.468097062100e+00      5.688833201104e-02
      2.010354514200e+00      3.129405933647e-01
      5.477100470700e-01      7.606501650914e-01
 p           1
      1.526861379500e-01      1.000000000000e+00
 d           1
      8.000000000000e-01      1.000000000000e+00

2
 s           5
      1.238401693800e+03      5.517365048110e-03
      1.862900499200e+02      4.108882855595e-02
      4.225117634600e+01      1.822538212649e-01
      1.167655793200e+01      4.682845943743e-01
      3.593050648200e+00      4.457581733600e-01
 s           1
      4.024514736300e-01      1.000000000000e+00
 s           1
      1.309018266800e-01      1.000000000000e+00
 p           3
      9.468097062100e+00      5.688833201104e-02
      2.010354514200e+00      3.129405933647e-01
      5.477100470700e-01      7.606501650914e-01
 p           1
      1.526861379500e-01      1.000000000000e+00
 d           1
      8.000000000000e-01      1.000000000000e+00

3
 s           3
      1.301070100000e+01      3.348548481299e-02
      1.962257200000e+00      2.347218708812e-01
      4.445379600000e-01      8.137702852596e-01
 s           1
      1.219496200000e-01      1.000000000000e+00
 p           1
      8.000000000000e-01      1.000000000000e+00

4
 s           3
      1.301070100000e+01      3.348548481299e-02
      1.962257200000e+00      2.347218708812e-01
      4.445379600000e-01      8.137702852596e-01
 s           1
      1.219496200000e-01      1.000000000000e+00
 p           1
      8.000000000000e-01      1.000000000000e+00

5
 s           3
      1.301070100000e+01      3.348548481299e-02
      1.962257200000e+00      2.347218708812e-01
      4.445379600000e-01      8.137702852596e-01
 s           1
      1.219496200000e-01      1.000000000000e+00
 p           1
      8.000000000000e-01      1.000000000000e+00

6
 s           3
      1.301070100000e+01      3.348548481299e-02
      1.962257200000e+00      2.347218708812e-01
      4.445379600000e-01      8.137702852596e-01
 s           1
      1.219496200000e-01      1.000000000000e+00
 p           1
      8.000000000000e-01      1.000000000000e+00


[5D]
[7F]
[9G]
[MO]
 Ene=  -11.254301
 Spin=  Alpha
 Occup=    2.000000
   1    -0.1075435920487648
   2    -0.0011858096530807
   3    -0.0042619754588506
   4    -0.0014516382789263
   5    -0.0000000549544859
   6    -0.0000009962159343
   7     0.0018557643890740
   8     0.0000002391048322
   9     0.0000011157325078
  10    -0.0004048796465710
  11     0.0000006373075467
  12     0.0000394743319493
  13     0.0001660962642449
  14    -0.0000002933873982
  15    -0.9850815950741282
  16    -0.0346498361079584
  17     0.0222275311107822
  18     0.0005373770629081
  19    -0.0000002925577051
  20     0.0000005552599623
  21     0.0006916253149806
  22     0.0000009353579792
  23     0.0000000435070707
  24     0.0013691273702232
  25    -0.0000016472491290
  26     0.0008080864219894
  27    -0.0004012034924893
  28    -0.0000014806196584
  29    -0.0000092735743365
  30    -0.0005380790640853
  31     0.0004140551949203
  32     0.0000695816954556
  33     0.0000295568377883
  34    -0.0000092399522681
  35    -0.0005384172492638
  36     0.0004141192752319
  37    -0.0000696353524379
  38    -0.0000290633707177
  39     0.0022080873024058
  40    -0.0048133022462874
  41     0.0006147012670327
  42     0.0012201278722221
  43    -0.0004356045207972
  44     0.0022069453537899
  45    -0.0048135067515388
  46     0.0006134213898464
  47    -0.0012199072133884
  48     0.0004364588016878
 Ene=  -11.247912
 Spin=  Alpha
 Occup=    2.000000
   1    -0.9850225516211942
   2    -0.0354814423771432
   3     0.0242751762213390
   4    -0.0001053907359589
   5    -0.0000001285126947
   6     0.0000000322956477
   7    -0.0011810578988284
   8    -0.0000009553753230
   9    -0.0000008642915494
  10     0.0014441789663611
  11    -0.0000017446823320
  12    -0.0009314040652736
  13    -0.0002279813456124
  14     0.0000007098873124
  15     0.1073353098339719
  16     0.0063556794428762
  17    -0.0096826513582128
  18     0.0013541456275667
  19     0.0000002483650496
  20     0.0000008259772627
  21    -0.0019077113300180
  22     0.0000018106503418
  23    -0.0000018353463961
  24    -0.0006806477175470
  25     0.0000009932114647
  26    -0.0001613582873744
  27     0.0002771760107310
  28     0.0000002351356848
  29     0.0023483675375501
  30    -0.0050868098515457
  31    -0.0007010022329947
  32    -0.0012012052006966
  33    -0.0004445352252383
  34     0.0023480467355633
  35    -0.0050872355834212
  36    -0.0007018348416868
  37     0.0012011629500081
  38     0.0004436644155478
  39    -0.0004091166583136
  40     0.0007221018329817
  41    -0.0005191801562385
  42    -0.0002722822590651
  43     0.0000998241881537
  44    -0.0004100268801652
  45     0.0007194199962028
  46    -0.0005194872156795
  47     0.0002725700149826
  48    -0.0001006377455939
 Ene=   -1.017089
 Spin=  Alpha
 Occup=    2.000000
   1    -0.2004342425828142
   2     0.3864774337510494
   3     0.1158891013270160
   4    -0.1198016743182935
   5    -0.0000027827188430
   6    -0.0000793821462089
   7    -0.0203917372512260
   8    -0.0000005623888449
   9    -0.0000138090071427
  10    -0.0104694908371163
  11     0.0000212186621493
  12     0.0018381336054736
  13     0.0139763672496568
  14     0.0000004770405947
  15    -0.1987472793547818
  16     0.3864589870987825
  17     0.1203184796925636
  18     0.1211982473801341
  19     0.0000248037960296
  20     0.0000768422847563
  21     0.0239803907269295
  22     0.0000040007393135
  23     0.0000178520205522
  24    -0.0107897219717128
  25     0.0000219883171489
  26    -0.0016647943794006
  27     0.0144725520905574
  28     0.0000043242349592
  29     0.1068105446693595
  30     0.0104587089824428
  31    -0.0092173270997836
  32    -0.0122560354092818
  33    -0.0045919875067023
  34     0.1068017941310334
  35     0.0104584063487059
  36    -0.0092243598628944
  37     0.0122534269524652
  38     0.0045798229894348
  39     0.1011673298250676
  40     0.0107361478381723
  41     0.0089940735845307
  42     0.0111406557215801
  43    -0.0040441271282282
  44     0.1011988472411467
  45     0.0107386517515987
  46     0.0089863339902099
  47    -0.0111478827897305
  48     0.0040598989237990
 Ene=   -0.782409
 Spin=  Alpha
 Occup=    2.000000
   1    -0.1516070636444267
   2     0.3038722737292190
   3     0.1336006972162949
   4     0.1519549914517331
   5     0.0000108362337082
   6     0.0001035238637649
   7     0.0576492546344571
   8     0.0000004631914398
   9     0.0000414036574687
  10    -0.0024458952385293
  11    -0.0000049428572354
  12     0.0061296407133585
  13    -0.0096118959585093
  14    -0.0000043021220031
  15     0.1538901885630400
  16    -0.3105227018241494
  17    -0.1379403238478328
  18     0.1643232708689315
  19     0.0000055438573927
  20     0.0001173863789282
  21     0.0606851903766514
  22     0.0000062701343529
  23     0.0000415578053436
  24     0.0028383813431032
  25     0.0000038432537872
  26     0.0058658121701829
  27     0.0089959069925026
  28    -0.0000071977026795
  29     0.1877701837813260
  30     0.0357094097115285
  31    -0.0068835821484899
  32    -0.0158760141905424
  33    -0.0061581871145848
  34     0.1877673251605648
  35     0.0357082168941666
  36    -0.0068948333099701
  37     0.0158745435570376
  38     0.0061498538402482
  39    -0.1938358853906512
  40    -0.0377450087655426
  41    -0.0078138656706389
  42    -0.0160885029699596
  43     0.0060497723600265
  44    -0.1937789983228204
  45    -0.0377379890035756
  46    -0.0077923677898778
  47     0.0160885914463522
  48    -0.0060613154492152
 Ene=   -0.623396
 Spin=  Alpha
 Occup=    2.000000
   1     0.0000135509640479
   2    -0.0000290890456262
   3    -0.0000206074448596
   4    -0.0001968615677841
   5     0.3233787511375270
   6     0.0700897767855140
   7    -0.0000762472001007
   8     0.1348516489530642
   9     0.0179218249127671
  10     0.0000045386642450
  11     0.0053506531874866
  12    -0.0000019627226130
  13     0.0000008825175063
  14     0.0012109499845551
  15     0.0000090242870427
  16    -0.0000155801641472
  17    -0.0000462385744311
  18     0.0001581069020955
  19     0.2980081540686350
  20    -0.0386563070351321
  21     0.0000416643369582
  22     0.1358076567564219
  23    -0.0026503258179981
  24     0.0000075683180875
  25     0.0065725225195432
  26    -0.0000021203543935
  27    -0.0000095969961862
  28     0.0006075212790275
  29     0.2179352196419792
  30     0.0566970746630070
  31    -0.0102054913338078
  32    -0.0089784854249193
  33    -0.0048778698783672
  34    -0.2180629506027208
  35    -0.0567336816197042
  36     0.0102144060166767
  37    -0.0089854782882367
  38    -0.0048682628159897
  39    -0.1891089215358775
  40    -0.0481396866575010
  41    -0.0094301809569113
  42    -0.0073106588812083
  43     0.0044674883316434
  44     0.1890384011711451
  45     0.0481264818411036
  46     0.0094198710633208
  47    -0.0073080393789959
  48     0.0044805391741583
 Ene=   -0.590328
 Spin=  Alpha
 Occup=    2.000000
   1    -0.0064454103138566
   2     0.0243292910958236
   3    -0.0391161690919453
   4    -0.4063826980095547
   5    -0.0002402771253909
   6    -0.0003389053042490
   7    -0.1458785549532007
   8    -0.0000979563367192
   9    -0.0001228913088606
  10    -0.0017818278735293
  11     0.0000145884631526
  12    -0.0056894175755611
  13     0.0197605305406691
  14     0.0000007294548550
  15    -0.0157446050403171
  16     0.0437723232058409
  17    -0.0268361116940897
  18     0.4030181838325260
  19    -0.0000019660006842
  20     0.0002327873911206
  21     0.1449776021141969
  22    -0.0000129957255108
  23     0.0000750672111561
  24    -0.0013022183729539
  25     0.0000116721372567
  26     0.0048689931654424
  27     0.0178702030820396
  28    -0.0000150517706095
  29    -0.1721118368319992
  30    -0.0564133209724275
  31    -0.0010574829926108
  32     0.0114923007831303
  33     0.0044410762285747
  34    -0.1718034333400997
  35    -0.0563167493804886
  36    -0.0010636373578031
  37    -0.0114804070513231
  38    -0.0044375972623555
  39    -0.1669227320416107
  40    -0.0547282917372125
  41     0.0001368263816075
  42    -0.0112472667564108
  43     0.0042103117731458
  44    -0.1667852557878948
  45    -0.0546837611738262
  46     0.0001578462258221
  47     0.0112409532460084
  48    -0.0042109255614784
 Ene=   -0.525566
 Spin=  Alpha
 Occup=    2.000000
   1    -0.0000169539799328
   2     0.0000444068914920
   3    -0.0000263033072245
   4    -0.0003386765614910
   5     0.1819968556855848
   6     0.2495121024934066
   7    -0.0001523686312015
   8     0.0683833723320269
   9     0.1477432241174762
  10    -0.0000116232146975
  11    -0.0097364802317046
  12     0.0000110372458733
  13     0.0000098900969950
  14     0.0192662864586849
  15    -0.0000151546223822
  16     0.0000356259976257
  17     0.0000322843902275
  18    -0.0000292418425563
  19    -0.2227480158946620
  20     0.2503521149272801
  21    -0.0000280399623787
  22    -0.0929432125945755
  23     0.1464186026767061
  24     0.0000083725873324
  25     0.0091439388267040
  26     0.0000213442815830
  27     0.0000099200210732
  28     0.0198112512114872
  29     0.2005081190326073
  30     0.0755386051752985
  31    -0.0084169932940271
  32    -0.0089370322009658
  33     0.0013305256646112
  34    -0.2006179083958093
  35    -0.0755774107833116
  36     0.0084139783080510
  37    -0.0089430050428250
  38     0.0013379893929547
  39     0.2231597670656630
  40     0.0843701578136937
  41     0.0102170570461486
  42     0.0090898295227977
  43     0.0007403319549696
  44    -0.2233335756906586
  45    -0.0844388120369747
  46    -0.0102128752541400
  47     0.0091058108152536
  48     0.0007196813615113
 Ene=    0.000000
 Spin=  Alpha
 Occup=    1.470551
   1    -0.0000128049447256
   2     0.0000284979202459
   3     0.0000105535379822
   4     0.0001071041141282
   5     0.2250446427900537
   6    -0.2861471320196529
   7     0.0001498099574243
   8     0.1524531396484863
   9    -0.2785605979342802
  10     0.0000336763195991
  11     0.0288583844647578
  12     0.0000135351181775
  13    -0.0000204428076306
  14     0.0183582224205487
  15     0.0000002250692918
  16     0.0000025146139091
  17    -0.0000207602837164
  18     0.0002484278223123
  19    -0.2151774132547483
  20    -0.2756826293492196
  21     0.0002327638817998
  22    -0.1428675254681790
  23    -0.2647217038086922
  24    -0.0000340091792405
  25    -0.0292633642184371
  26     0.0000143181906218
  27     0.0000292879749992
  28     0.0204989373043993
  29     0.1430172932803160
  30     0.0962591103160393
  31    -0.0021291122582098
  32    -0.0002476459087926
  33    -0.0119960717202203
  34    -0.1430465608316638
  35    -0.0962921307403479
  36     0.0021429493356205
  37    -0.0002488147651203
  38    -0.0119940015217334
  39     0.1501439623342217
  40     0.1080217450345969
  41     0.0029066635379940
  42     0.0004865744540558
  43    -0.0109963874455608
  44    -0.1502071840255170
  45    -0.1080439878879550
  46    -0.0028847468587153
  47     0.0004950208255368
  48    -0.0110062314923644
 Ene=    0.000000
 Spin=  Alpha
 Occup=    0.529449
   1    -0.0000085312431432
   2     0.0000191175096409
   3     0.0000238238608730
   4     0.0001844419315569
   5     0.1155759839805538
   6    -0.3266484252702850
   7     0.0003077226273317
   8     0.2629352922391697
   9    -0.5105316552831253
  10    -0.0000259575786007
  11    -0.0228229112554096
  12    -0.0000222768422318
  13     0.0000220240549386
  14    -0.0324631877464391
  15     0.0000036114746128
  16     0.0000089681318814
  17    -0.0001224259213472
  18    -0.0002033306486030
  19     0.1300199120467512
  20     0.3403383737462498
  21    -0.0002922117943763
  22     0.2923827142788053
  23     0.5208923760732044
  24    -0.0000317488692440
  25    -0.0232317930387005
  26     0.0000248150970652
  27     0.0000194631438879
  28     0.0320619535041882
  29    -0.1176829130941401
  30    -0.1840875026376690
  31    -0.0051749634508014
  32     0.0089451286784931
  33    -0.0142483976022861
  34     0.1176803807744532
  35     0.1840463747341751
  36     0.0051912421541452
  37     0.0089474520306553
  38    -0.0142413908284231
  39     0.1190933618807597
  40     0.2039839308159029
  41    -0.0039069889956963
  42     0.0087769958519442
  43     0.0148538499890231
  44    -0.1190864669884170
  45    -0.2038912390298955
  46     0.0038955754386882
  47     0.0087840361693596
  48     0.0148540141981086
 Ene=    0.206342
 Spin=  Alpha
 Occup=    0.000000
   1    -0.0676745728199187
   2     0.1170767261612065
   3     1.4863831342126277
   4     0.1288041839136032
   5     0.0000592028395193
   6     0.0001070204664969
   7     0.5063890918240048
   8     0.0002517899219205
   9     0.0004617687502225
  10    -0.0028882776642106
  11     0.0000079485723948
  12     0.0049516075707198
  13     0.0042859508610743
  14    -0.0000039869550773
  15    -0.0824334300982052
  16     0.1390038852410997
  17     1.6451479165268743
  18    -0.1403733775045694
  19     0.0000832402958161
  20    -0.0001402394755589
  21    -0.6260746828746829
  22     0.0003068132481515
  23    -0.0006341162226705
  24    -0.0031857527161617
  25     0.0000070368365608
  26    -0.0050056540112658
  27     0.0034769040271780
  28     0.0000077953354861
  29     0.0025466596892393
  30    -1.0458697290093453
  31     0.0049626107100165
  32     0.0014091066282763
  33     0.0031871140189079
  34     0.0025622485092116
  35    -1.0452760466144668
  36     0.0049621661211968
  37    -0.0014067767500110
  38    -0.0031767093107568
  39     0.0012871507955559
  40    -1.2027705415629730
  41    -0.0040110965429179
  42    -0.0025824334489700
  43     0.0032902050141194
  44     0.0012565488954669
  45    -1.2032705936262682
  46    -0.0040044975570618
  47     0.0025852510748093
  48    -0.0032995133449079
 Ene=    0.227069
 Spin=  Alpha
 Occup=    0.000000
   1     0.0995765417035247
   2    -0.1270766251618593
   3    -2.2318161397975453
   4    -0.0842749132250587
   5    -0.0000213722093157
   6    -0.0001070868418702
   7    -0.2579919661751043
   8     0.0000333432189638
   9    -0.0003290885147934
  10     0.0024672865818399
  11    -0.0000013938028819
  12     0.0011981260852164
  13     0.0056531118029533
  14     0.0000077556624176
  15    -0.0862247966784446
  16     0.1012166335779097
  17     1.9815027888944847
  18    -0.0744965879809689
  19    -0.0000726099130492
  20     0.0000016529754452
  21    -0.2076358560738500
  22    -0.0003220692610518
  23     0.0000344097853796
  24    -0.0017092660498820
  25    -0.0000070909153811
  26     0.0023155337110460
  27    -0.0072938866055549
  28    -0.0000011754099315
  29     0.0200940658021529
  30     1.2753673995568451
  31    -0.0011943958380978
  32    -0.0041934975360527
  33     0.0010475221067493
  34     0.0200825464930822
  35     1.2750853254757397
  36    -0.0011985909480417
  37     0.0041937524515474
  38    -0.0010522971821400
  39    -0.0227016896183598
  40    -1.0977812129260422
  41     0.0003866343174683
  42    -0.0047558993941996
  43    -0.0014030513759153
  44    -0.0226938882016295
  45    -1.0966115692846488
  46     0.0003932920732624
  47     0.0047542231457813
  48     0.0014107568822261
 Ene=    0.239336
 Spin=  Alpha
 Occup=    0.000000
   1    -0.0000399590365473
   2     0.0000460339922619
   3     0.0015356785128986
   4     0.0001942298016359
   5    -0.1862206427314464
   6    -0.1249080531320336
   7     0.0005563909415285
   8    -0.6982252948321745
   9    -0.5801978164656991
  10    -0.0000097610863013
  11    -0.0070428701837019
  12     0.0000046694979704
  13     0.0000017112522420
  14     0.0087938560496327
  15    -0.0000050502447081
  16     0.0000478177687527
  17    -0.0004087125930516
  18    -0.0001195692506531
  19    -0.1962628528623642
  20     0.1205559859815565
  21    -0.0008301759024065
  22    -0.6500597338215461
  23     0.5489019945613498
  24    -0.0000043775168095
  25    -0.0070341380927408
  26    -0.0000056912849475
  27     0.0000072691890011
  28    -0.0080978014805537
  29     0.0076767089683910
  30     1.1883459951108444
  31    -0.0042164457773547
  32    -0.0039443761081277
  33    -0.0048312888182292
  34    -0.0076979626918359
  35    -1.1898849999395913
  36     0.0042303595749805
  37    -0.0039487993988190
  38    -0.0048238331596965
  39    -0.0065873784003121
  40    -1.1254828228871301
  41    -0.0037388400472382
  42    -0.0032651967334390
  43     0.0044349601236849
  44     0.0065947507869685
  45     1.1254795717419994
  46     0.0037407841666316
  47    -0.0032654532354709
  48     0.0044341551296556
 Ene=    0.291017
 Spin=  Alpha
 Occup=    0.000000
   1     0.0000076048790314
   2     0.0000198848649102
   3    -0.0012408615615477
   4     0.0000197915947223
   5    -0.1844254157051132
   6    -0.0798214425001308
   7     0.0005310402652853
   8    -1.4303808304489460
   9    -0.2809235258286936
  10     0.0000041965412518
  11     0.0015996087865461
  12    -0.0000092663733658
  13     0.0000072677554637
  14    -0.0183869891631402
  15    -0.0000109608449697
  16    -0.0000076968994386
  17     0.0008514394140793
  18     0.0000812939530606
  19     0.1887285234691849
  20    -0.0946750635245741
  21     0.0006904430838615
  22     1.3920418756374684
  23    -0.2878814601131733
  24    -0.0000046740182229
  25    -0.0007750399214823
  26    -0.0000127925194063
  27     0.0000001980330418
  28    -0.0161357626953592
  29    -0.0274295191331569
  30     1.5167784726009117
  31    -0.0118225116179097
  32    -0.0073484719122931
  33    -0.0027938807167314
  34     0.0274469925243680
  35    -1.5160278027644376
  36     0.0118234867184101
  37    -0.0073413170428887
  38    -0.0027837213435237
  39    -0.0220622791731454
  40     1.4933318018614599
  41     0.0115691027737615
  42     0.0064076970464285
  43    -0.0031662764635989
  44     0.0220393720969588
  45    -1.4936410702976144
  46    -0.0115725758893321
  47     0.0064056851860299
  48    -0.0031801571328777
 Ene=    0.473314
 Spin=  Alpha
 Occup=    0.000000
   1    -0.0662741370250903
   2     0.1195485825828151
   3     4.8093505475832830
   4    -0.1567238738104628
   5    -0.0000438409253498
   6    -0.0000693941357739
   7    -3.3965560639312913
   8    -0.0003032916533544
   9    -0.0021419922926044
  10    -0.0017649582698972
  11    -0.0000105636323802
  12     0.0138118822488282
  13    -0.0219861750206975
  14    -0.0000322321548869
  15     0.0665607076546927
  16    -0.1046595121016256
  17    -4.8703786851816160
  18    -0.1608582693261580
  19     0.0000246604700013
  20    -0.0001442414149165
  21    -3.3477539504286420
  22    -0.0000997452616057
  23    -0.0023444071852466
  24    -0.0024499995337893
  25     0.0000113116337585
  26     0.0100903910894189
  27     0.0185028865397298
  28     0.0000179539048399
  29     0.1297938708192636
  30     0.2192343111449287
  31    -0.0078927555498874
  32     0.0058637410983905
  33     0.0031009387072288
  34     0.1299545751203294
  35     0.2191133700309002
  36    -0.0078715805383441
  37    -0.0058690363709104
  38    -0.0031009442798764
  39    -0.0778903204273323
  40    -0.2408719835986394
  41    -0.0091004897274823
  42     0.0040996446935445
  43    -0.0024303846743219
  44    -0.0783262019237263
  45    -0.2400978418518349
  46    -0.0090560913363153
  47    -0.0040901862454277
  48     0.0024101732617357
 Ene=    0.565384
 Spin=  Alpha
 Occup=    0.000000
   1    -0.0918590266809425
   2     0.7747514015168956
   3    -0.5349406143283789
   4    -0.3906939064132845
   5    -0.0000923243373475
   6    -0.0001539070229485
   7     0.6303230078858828
   8     0.0001566750311991
   9     0.0007022095659465
  10    -0.0304288553291871
  11     0.0000587664873987
  12     0.0033556470154467
  13     0.0414971915789246
  14    -0.0000389714026073
  15    -0.0975548908172077
  16     0.8485672205789321
  17    -0.9575895073155855
  18     0.3712933189013916
  19    -0.0001310827870930
  20     0.0002597683237696
  21    -0.7927734398520202
  22     0.0003486537150071
  23    -0.0008621717802597
  24    -0.0331712338864893
  25     0.0000613759710039
  26    -0.0056346831815872
  27     0.0418938654767584
  28     0.0000742527573455
  29    -0.0544207612983182
  30     0.2221021263339192
  31     0.0326955598148802
  32    -0.0025158423092107
  33    -0.0019535956343921
  34    -0.0539053578718261
  35     0.2220150826399817
  36     0.0327533416473579
  37     0.0025178847045556
  38     0.0020206275937676
  39    -0.0039369846353716
  40     0.1768356225415464
  41    -0.0352110303545392
  42     0.0036286294861551
  43    -0.0024880149291233
  44    -0.0049122777419957
  45     0.1778164613890943
  46    -0.0351320549827505
  47    -0.0036235505368690
  48     0.0024205443848534
 Ene=    0.638294
 Spin=  Alpha
 Occup=    0.000000
   1    -0.0671568350129396
   2     0.6776683220812582
   3    -2.6284920688325926
   4     0.1481577253874832
   5    -0.0004534749588414
   6     0.0005200072629757
   7    -0.4395359813710045
   8     0.0021799683731921
   9     0.0016533347669590
  10    -0.0512258155729722
  11     0.0000092956971388
  12     0.0355684536097625
  13    -0.0340322132042783
  14    -0.0004309106204156
  15    -0.0677518041282838
  16     0.5508438706539082
  17    -0.9319224980245736
  18    -0.1027247184726883
  19    -0.0002773569622122
  20    -0.0002537923139297
  21     1.1807769455163755
  22     0.0017331525356252
  23    -0.0011701634934800
  24    -0.0453266871935002
  25     0.0000128791759484
  26    -0.0235885584955543
  27    -0.0319546010905009
  28     0.0004430937442147
  29     0.5376038226883515
  30     0.4473504946032142
  31    -0.0167417136479503
  32     0.0170835845165753
  33     0.0018391639918771
  34     0.5419946105845793
  35     0.4467048977388722
  36    -0.0163478306187710
  37    -0.0171045975230550
  38    -0.0016966613594431
  39     0.4507820130685180
  40     0.4200504861242135
  41     0.0177016557235917
  42    -0.0134896544118649
  43    -0.0003628965686323
  44     0.4461407793040117
  45     0.4214163169567968
  46     0.0180856503729273
  47     0.0134612664675866
  48     0.0002583220480595
 Ene=    0.641133
 Spin=  Alpha
 Occup=    0.000000
   1    -0.0003729636923513
   2     0.0036788246568754
   3    -0.0104070948755750
   4     0.0004193667837287
   5     0.0951026445697759
   6    -0.0819234860586318
   7    -0.0020522544184204
   8    -0.4931604945851099
   9    -0.4945206889706804
  10    -0.0002534328222667
  11     0.0051518877678580
  12     0.0002376838959389
  13    -0.0001328789567232
  14     0.0991578730105450
  15    -0.0003147502834928
  16     0.0025303577770032
  17    -0.0047376937793291
  18    -0.0000921023804933
  19     0.0745196328664637
  20     0.0529460250334040
  21     0.0023193896157372
  22    -0.4952763435927233
  23     0.5031830299586554
  24    -0.0001836145758683
  25     0.0064655973852276
  26    -0.0001599002954897
  27    -0.0001095574883291
  28    -0.1060388662332302
  29     0.5381711520458149
  30    -0.0881744654301706
  31     0.0502872498578759
  32     0.0027256587450706
  33    -0.0186615131562817
  34    -0.5333265428334402
  35     0.0923995938509535
  36    -0.0503524389240253
  37     0.0025631002655703
  38    -0.0187482146349392
  39    -0.5932296696897764
  40     0.1887127790539251
  41     0.0494548635153542
  42     0.0026026370104852
  43     0.0176023627531716
  44     0.5961368661025033
  45    -0.1855601548732361
  46    -0.0494735626458558
  47     0.0026610756877738
  48     0.0175394543568314
 Ene=    0.716645
 Spin=  Alpha
 Occup=    0.000000
   1     0.0000608854889976
   2    -0.0011725047684986
   3     0.0067830801830683
   4    -0.0006761916140320
   5    -0.2608689022340787
   6     0.6526413399424722
   7    -0.0010026129436354
   8     0.3310862705830113
   9    -0.5864987391273989
  10     0.0000026365411994
  11    -0.0584025787501853
  12    -0.0000971474500841
  13     0.0000474649875772
  14    -0.0067732707114381
  15    -0.0000442474414081
  16     0.0010184120642595
  17    -0.0067149631480101
  18    -0.0008307186304519
  19     0.2555073392159129
  20     0.6740918042302539
  21    -0.0006298566752864
  22    -0.3442878749421039
  23    -0.5942532353899256
  24     0.0000001870991262
  25     0.0580075821255897
  26    -0.0000956163236482
  27    -0.0000573435140205
  28    -0.0132895579639842
  29    -0.0284392890670333
  30     0.1112860855994250
  31     0.0141208107383681
  32    -0.0094956504582103
  33     0.0120726630625839
  34     0.0268393495442502
  35    -0.1123053407200142
  36    -0.0140877933444608
  37    -0.0094556756272396
  38     0.0120818680178981
  39    -0.0499331528449511
  40     0.1162560415004254
  41    -0.0109908899748235
  42     0.0091897813324700
  43     0.0118409648237891
  44     0.0516818698317673
  45    -0.1153408965627330
  46     0.0110469482606071
  47     0.0092312869471067
  48     0.0118218774119372
 Ene=    0.723393
 Spin=  Alpha
 Occup=    0.000000
   1     0.0296165179713752
   2    -0.6615258156290045
   3     3.9234279379622499
   4    -0.1698363509971677
   5     0.0003083921502165
   6    -0.0011395919555996
   7    -0.8125771703852478
   8    -0.0004515713650847
   9     0.0000370347958373
  10     0.0414213205388846
  11     0.0000721051704236
  12    -0.0550938590837870
  13     0.0012949845637782
  14     0.0001101969050907
  15    -0.0289336714898220
  16     0.6740104339668299
  17    -4.2349279630230239
  18    -0.2336583789622261
  19    -0.0002212125907400
  20    -0.0013477717723443
  21    -0.4944794585973805
  22    -0.0004359896629164
  23     0.0012538187681015
  24    -0.0502578173813670
  25    -0.0000496800335192
  26    -0.0619064794234602
  27    -0.0138876569410803
  28     0.0000233312436374
  29    -0.4692419455542774
  30    -0.2775658624705558
  31     0.0116931343272400
  32    -0.0125616047230851
  33    -0.0106433821573514
  34    -0.4699723896083920
  35    -0.2767300774440729
  36     0.0116164958176243
  37     0.0126066005398662
  38     0.0106155726873256
  39     0.5938125350167038
  40     0.3609792409588238
  41     0.0230937277803018
  42    -0.0175392415528707
  43     0.0109891975023243
  44     0.5943952635470741
  45     0.3615900332907106
  46     0.0230922048961926
  47     0.0174829784863932
  48    -0.0109649030119457
 Ene=    0.792736
 Spin=  Alpha
 Occup=    0.000000
   1     0.0000088144351596
   2    -0.0000205184052909
   3    -0.0001158405205617
   4    -0.0004148045467771
   5    -0.2941738011812942
   6     0.7032691725915026
   7     0.0006763558289268
   8     0.2982678422648630
   9    -0.9849682301170318
  10     0.0000255460280408