[Molden Format]
[Atoms] Angs
 c       1                    6  7.095000000000e-01  0.000000000000e+00 -1.000000000000e-03
 c       2                    6 -6.442000000000e-01 -1.000000000000e-04 -1.900000000000e-03
 h       3                    1  1.268900000000e+00  8.842000000000e-01  3.258000000000e-01
 h       4                    1  1.269500000000e+00 -8.841000000000e-01 -3.271000000000e-01
 h       5                    1 -1.257300000000e+00 -8.737000000000e-01  3.095000000000e-01
 h       6                    1 -1.256400000000e+00  8.738000000000e-01 -3.143000000000e-01
[GTO]
1
 s           5
      1.238401693800e+03      5.517365048110e-03
      1.862900499200e+02      4.108882855595e-02
      4.225117634600e+01      1.822538212649e-01
      1.167655793200e+01      4.682845943743e-01
      3.593050648200e+00      4.457581733600e-01
 s           1
      4.024514736300e-01      1.000000000000e+00
 s           1
      1.309018266800e-01      1.000000000000e+00
 p           3
      9.468097062100e+00      5.688833201104e-02
      2.010354514200e+00      3.129405933647e-01
      5.477100470700e-01      7.606501650914e-01
 p           1
      1.526861379500e-01      1.000000000000e+00
 d           1
      8.000000000000e-01      1.000000000000e+00

2
 s           5
      1.238401693800e+03      5.517365048110e-03
      1.862900499200e+02      4.108882855595e-02
      4.225117634600e+01      1.822538212649e-01
      1.167655793200e+01      4.682845943743e-01
      3.593050648200e+00      4.457581733600e-01
 s           1
      4.024514736300e-01      1.000000000000e+00
 s           1
      1.309018266800e-01      1.000000000000e+00
 p           3
      9.468097062100e+00      5.688833201104e-02
      2.010354514200e+00      3.129405933647e-01
      5.477100470700e-01      7.606501650914e-01
 p           1
      1.526861379500e-01      1.000000000000e+00
 d           1
      8.000000000000e-01      1.000000000000e+00

3
 s           3
      1.301070100000e+01      3.348548481299e-02
      1.962257200000e+00      2.347218708812e-01
      4.445379600000e-01      8.137702852596e-01
 s           1
      1.219496200000e-01      1.000000000000e+00
 p           1
      8.000000000000e-01      1.000000000000e+00

4
 s           3
      1.301070100000e+01      3.348548481299e-02
      1.962257200000e+00      2.347218708812e-01
      4.445379600000e-01      8.137702852596e-01
 s           1
      1.219496200000e-01      1.000000000000e+00
 p           1
      8.000000000000e-01      1.000000000000e+00

5
 s           3
      1.301070100000e+01      3.348548481299e-02
      1.962257200000e+00      2.347218708812e-01
      4.445379600000e-01      8.137702852596e-01
 s           1
      1.219496200000e-01      1.000000000000e+00
 p           1
      8.000000000000e-01      1.000000000000e+00

6
 s           3
      1.301070100000e+01      3.348548481299e-02
      1.962257200000e+00      2.347218708812e-01
      4.445379600000e-01      8.137702852596e-01
 s           1
      1.219496200000e-01      1.000000000000e+00
 p           1
      8.000000000000e-01      1.000000000000e+00


[5D]
[7F]
[9G]
[MO]
 Ene=  -11.246315
 Spin=  Alpha
 Occup=    2.000000
   1     0.2211043370170741
   2     0.0053000823769299
   3     0.0014761415846472
   4     0.0014551831170004
   5     0.0000000762982390
   6     0.0000009868542941
   7    -0.0017450192440423
   8    -0.0000001572118869
   9    -0.0000010468549037
  10     0.0002561231248819
  11    -0.0000004357406329
  12     0.0000661568462365
  13    -0.0001182940452742
  14     0.0000002146018308
  15     0.9659656058157721
  16     0.0337043112849122
  17    -0.0210328036689233
  18    -0.0007586899023726
  19     0.0000001646356209
  20    -0.0000006996257930
  21    -0.0004369727466239
  22    -0.0000010766605636
  23     0.0000001830190169
  24    -0.0012795724162323
  25     0.0000014742692612
  26    -0.0007681232366705
  27     0.0003537101689135
  28     0.0000014293549900
  29    -0.0002633497729888
  30     0.0011190938832413
  31    -0.0003265451465076
  32     0.0000698689964127
  33     0.0000179675966773
  34    -0.0002633620867916
  35     0.0011194575980730
  36    -0.0003265187077409
  37    -0.0000698078795218
  38    -0.0000183526902056
  39    -0.0021384299827677
  40     0.0047129212114811
  41    -0.0005560996622207
  42    -0.0011928159246204
  43     0.0004051765445246
  44    -0.0021371585934488
  45     0.0047133613881208
  46    -0.0005547950673741
  47     0.0011925239201625
  48    -0.0004059232124428
 Ene=  -11.243030
 Spin=  Alpha
 Occup=    2.000000
   1    -0.9658921144788667
   2    -0.0351065493357612
   3     0.0247151717183469
   4    -0.0000339932864345
   5    -0.0000001298314542
   6     0.0000000486430165
   7    -0.0013755490127441
   8    -0.0000009710905283
   9    -0.0000009539038645
  10     0.0015002541198129
  11    -0.0000018146928810
  12    -0.0009185230039600
  13    -0.0002152448525299
  14     0.0000007485053149
  15     0.2209167756950475
  16     0.0103269482697657
  17    -0.0122952886205438
  18     0.0012406989671216
  19     0.0000002747044598
  20     0.0000007430598151
  21    -0.0020074239179585
  22     0.0000016601336550
  23    -0.0000018417807809
  24    -0.0008578761366027
  25     0.0000011839459997
  26    -0.0002503416013234
  27     0.0002875299537477
  28     0.0000003997244336
  29     0.0023281048417762
  30    -0.0050075044363119
  31    -0.0007504722805982
  32    -0.0012174200904164
  33    -0.0004305102341291
  34     0.0023277753434959
  35    -0.0050078782693011
  36    -0.0007512918356601
  37     0.0012173776650577
  38     0.0004295813964255
  39    -0.0006598261084097
  40     0.0012871752419127
  41    -0.0005864567586899
  42    -0.0004182697592789
  43     0.0001467301355771
  44    -0.0006605627068759
  45     0.0012845761887736
  46    -0.0005866013201452
  47     0.0004185298687461
  48    -0.0001476317701247
 Ene=   -1.012722
 Spin=  Alpha
 Occup=    2.000000
   1     0.2006942382245607
   2    -0.3855503829225877
   3    -0.1195764908430914
   4     0.1166047593621694
   5     0.0000004111237298
   6     0.0000785695712251
   7     0.0196888842791415
   8     0.0000007763856115
   9     0.0000146431291787
  10     0.0093415358088390
  11    -0.0000202633429041
  12    -0.0017271861183416
  13    -0.0140462043187024
  14    -0.0000009637634545
  15     0.1978353465627337
  16    -0.3825708857886855
  17    -0.1235158980085881
  18    -0.1184925459418652
  19    -0.0000201694803169
  20    -0.0000721777662099
  21    -0.0236580435911232
  22    -0.0000027963488954
  23    -0.0000152056256352
  24     0.0095492884667181
  25    -0.0000202517023957
  26     0.0015393050216921
  27    -0.0146103751650482
  28    -0.0000038739208835
  29    -0.1082431714436266
  30    -0.0099032014040799
  31     0.0090923453012284
  32     0.0124127104477444
  33     0.0048742936913262
  34    -0.1082304965352226
  35    -0.0099000718604643
  36     0.0090996202591426
  37    -0.0124099679809028
  38    -0.0048622431455367
  39    -0.1015536402521900
  40    -0.0101571605781037
  41    -0.0088666321949185
  42    -0.0111866413956734
  43     0.0042911847776354
  44    -0.1015793739883226
  45    -0.0101577614219731
  46    -0.0088575368222707
  47     0.0111936871462440
  48    -0.0043062857144727
 Ene=   -0.779364
 Spin=  Alpha
 Occup=    2.000000
   1     0.1506153687059877
   2    -0.3023066536066405
   3    -0.1212597665837131
   4    -0.1544568223773594
   5    -0.0000140055376662
   6    -0.0001031784100804
   7    -0.0630619435295821
   8    -0.0000026270982388
   9    -0.0000417053286657
  10     0.0035278128404690
  11     0.0000037459061628
  12    -0.0056496949431483
  13     0.0099205159791182
  14     0.0000042194545730
  15    -0.1539705973694306
  16     0.3104929938607196
  17     0.1261325763002571
  18    -0.1621942244177507
  19    -0.0000053027258750
  20    -0.0001130302650655
  21    -0.0642532742371661
  22    -0.0000082615012584
  23    -0.0000424415897468
  24    -0.0039455022965815
  25    -0.0000022267881489
  26    -0.0053096077720636
  27    -0.0090920498713388
  28     0.0000066419661200
  29    -0.1892261674055249
  30    -0.0371263735282961
  31     0.0068868432596754
  32     0.0156621725640570
  33     0.0065838374129526
  34    -0.1892203284529820
  35    -0.0371250483125393
  36     0.0068984341783632
  37    -0.0156605426088864
  38    -0.0065752695897515
  39     0.1944491182091543
  40     0.0391443798804373
  41     0.0078862783950323
  42     0.0158190200236665
  43    -0.0064734532301538
  44     0.1943919892196767
  45     0.0391409784181458
  46     0.0078639746965727
  47    -0.0158188722059582
  48     0.0064851231447872
 Ene=   -0.623445
 Spin=  Alpha
 Occup=    2.000000
   1    -0.0000130606343235
   2     0.0000279705591787
   3     0.0000109094870230
   4     0.0001858963964461
   5    -0.3253989243415825
   6    -0.0729190319268743
   7     0.0000778800014740
   8    -0.1270354326598504
   9    -0.0229863772369873
  10    -0.0000053658104172
  11    -0.0055306668210378
  12    -0.0000009447093357
  13     0.0000006124507043
  14    -0.0045378147808235
  15    -0.0000078790535339
  16     0.0000141717669658
  17     0.0000439723845212
  18    -0.0001467361657322
  19    -0.2875748778513407
  20     0.0464249943566257
  21    -0.0000353929289646
  22    -0.1193872942413687
  23     0.0136261962325905
  24    -0.0000075687931498
  25    -0.0061907124918968
  26     0.0000036921779219
  27     0.0000095186277084
  28     0.0015874241630488
  29    -0.2273947977884904
  30    -0.0681640371742762
  31     0.0098298191962654
  32     0.0094608635035548
  33     0.0046187691709997
  34     0.2275096640188788
  35     0.0681979952739985
  36    -0.0098385081214014
  37     0.0094670353913111
  38     0.0046095535328534
  39     0.1902283393606674
  40     0.0563624833187383
  41     0.0089467765830512
  42     0.0075649509221502
  43    -0.0038651175972985
  44    -0.1901676065137414
  45    -0.0563463925595131
  46    -0.0089366250223717
  47     0.0075637909579377
  48    -0.0038772775699620
 Ene=   -0.585393
 Spin=  Alpha
 Occup=    2.000000
   1    -0.0085121212509533
   2     0.0273411740371904
   3    -0.0321421143361540
   4    -0.4057823376822285
   5    -0.0002337547611926
   6    -0.0003384951972898
   7    -0.1479475867644860
   8    -0.0000963049476327
   9    -0.0001265105842143
  10    -0.0003339025516706
  11     0.0000132222389345
  12    -0.0052392223796207
  13     0.0197216584995932
  14    -0.0000012661956282
  15    -0.0161902048584271
  16     0.0432104885929604
  17    -0.0246431912658851
  18     0.4024098237623124
  19     0.0000191239390020
  20     0.0002304036661671
  21     0.1452584457669239
  22     0.0000037465789259
  23     0.0000791628405283
  24     0.0000942500499364
  25     0.0000098529374277
  26     0.0044691709247003
  27     0.0180289305305278
  28    -0.0000157299409622
  29    -0.1708643412364441
  30    -0.0579928022376087
  31    -0.0012118967319387
  32     0.0112702518427066
  33     0.0045152521012764
  34    -0.1705571097566510
  35    -0.0578909507752097
  36    -0.0012169579711429
  37    -0.0112583815015260
  38    -0.0045122491733505
  39    -0.1674824439546850
  40    -0.0568600144644926
  41     0.0002206207571771
  42    -0.0111618630403880
  43     0.0043235916534092
  44    -0.1673149688426695
  45    -0.0568104848421238
  46     0.0002426684928883
  47     0.0111545422661484
  48    -0.0043229117053006
 Ene=   -0.525687
 Spin=  Alpha
 Occup=    2.000000
   1    -0.0000193145419261
   2     0.0000494338408860
   3    -0.0000186072764140
   4    -0.0003173521389241
   5     0.2194804711192224
   6     0.1846077891637693
   7    -0.0001289598537948
   8     0.1051457649917332
   9     0.0932624196566740
  10    -0.0000066160589324
  11    -0.0062094015187004
  12     0.0000136327542619
  13     0.0000074258643495
  14     0.0228005188778257
  15    -0.0000141136360465
  16     0.0000333775978205
  17     0.0000249464391224
  18     0.0000307230867173
  19    -0.2645801888806170
  20     0.1889352600146046
  21     0.0000181064853628
  22    -0.1294044254426434
  23     0.0953352149909404
  24     0.0000049479939273
  25     0.0055304340927525
  26     0.0000237589228842
  27     0.0000141075798888
  28     0.0240102918523452
  29     0.2191742478743353
  30     0.0878062094480091
  31    -0.0083369752262746
  32    -0.0085954884174339
  33    -0.0011347795492686
  34    -0.2192949437804258
  35    -0.0878564766123892
  36     0.0083367588761137
  37    -0.0086020485037427
  38    -0.0011277346228934
  39     0.2484845798258292
  40     0.1017587626075847
  41     0.0104205013823825
  42     0.0090138561098391
  43    -0.0016079078640405
  44    -0.2486751125816161
  45    -0.1018369939169811
  46    -0.0104118589122413
  47     0.0090319003653899
  48    -0.0016292097396538
 Ene=   -0.340295
 Spin=  Alpha
 Occup=    2.000000
   1    -0.0000065392420076
   2     0.0000154089114590
   3     0.0000050176658919
   4     0.0001690474263990
   5     0.1811928248257215
   6    -0.3295770651749729
   7     0.0001688690638427
   8     0.1370714523457819
   9    -0.2896249155275867
  10     0.0000324179096026
  11     0.0279692422506701
  12     0.0000106834993027
  13    -0.0000204942974425
  14     0.0140536408235997
  15     0.0000029560444621
  16    -0.0000044920756217
  17    -0.0000149171647070
  18     0.0002564422148225
  19    -0.1774109311959832
  20    -0.3302682459313852
  21     0.0002343356991232
  22    -0.1343779902917004
  23    -0.2905427335072989
  24    -0.0000321051441167
  25    -0.0277763080550935
  26     0.0000101010014105
  27     0.0000242668467800
  28     0.0151918415870134
  29     0.0971280650001884
  30     0.0764723738870822
  31    -0.0004167766506063
  32     0.0014075330893668
  33    -0.0110231581858068
  34    -0.0971405035664476
  35    -0.0764945661356157
  36     0.0004297867842361
  37     0.0014067968957979
  38    -0.0110224538691509
  39     0.1018019327892478
  40     0.0822615029742993
  41     0.0011073210799393
  42    -0.0012168123468830
  43    -0.0105223518939544
  44    -0.1018330668929141
  45    -0.0822782370331096
  46    -0.0010878008474058
  47    -0.0012111411941938
  48    -0.0105265178769748
 Ene=    0.129169
 Spin=  Alpha
 Occup=    0.000000
   1    -0.0000085277526424
   2     0.0000178247880185
   3     0.0000755925423805
   4     0.0001739623764997
   5     0.1257743953634186
   6    -0.3121597792191216
   7     0.0003423472783744
   8     0.2454033458641751
   9    -0.5848807515806879
  10    -0.0000235169255976
  11    -0.0206158622164264
  12    -0.0000095625629208
  13     0.0000156835410468
  14    -0.0122489853957665
  15    -0.0000006615844701
  16     0.0000085702137077
  17    -0.0000530239105036
  18    -0.0002098714433859
  19     0.1282600240578325
  20     0.3146896677268366
  21    -0.0003871766705789
  22     0.2581520626423843
  23     0.5888323228222070
  24    -0.0000256703359284
  25    -0.0205944449147464
  26     0.0000088426925343
  27     0.0000174692335165
  28     0.0120668564297672
  29    -0.0748334528151643
  30    -0.1920194197946563
  31    -0.0029857794825100
  32     0.0068370659920900
  33    -0.0145059703989310
  34     0.0748372827786985
  35     0.1919512730956467
  36     0.0030029085642502
  37     0.0068379384751883
  38    -0.0145018482314112
  39     0.0763477149151286
  40     0.2052850021008532
  41    -0.0023187961508750
  42     0.0066412240345717
  43     0.0147893703638122
  44    -0.0763611733540921
  45    -0.2053111160413638
  46     0.0023008217259710
  47     0.0066419360733151
  48     0.0147848734041697
 Ene=    0.208456
 Spin=  Alpha
 Occup=    0.000000
   1    -0.0694521585926106
   2     0.1173196690960944
   3     1.5364693198238126
   4     0.1321572921320037
   5     0.0000501764215019
   6     0.0001163947639397
   7     0.5132290221569411
   8     0.0002378227333841
   9     0.0004682725435220
  10    -0.0027995207929429
  11     0.0000085350830578
  12     0.0050501978721236
  13     0.0044114719381091
  14    -0.0000030152687177
  15    -0.0800786774861398
  16     0.1333510281016121
  17     1.6086654182296833
  18    -0.1395974103497518
  19     0.0000688007512655
  20    -0.0001433899696159
  21    -0.6195194450321223
  22     0.0002585838562520
  23    -0.0006249517270081
  24    -0.0030412088573048
  25     0.0000075190623961
  26    -0.0052707955199023
  27     0.0037891524357278
  28     0.0000075722457616
  29     0.0023332577739934
  30    -1.0753958873236684
  31     0.0050245660650397
  32     0.0017398083469015
  33     0.0030709490657713
  34     0.0023440740972668
  35    -1.0748601891835148
  36     0.0050239687775992
  37    -0.0017379782903582
  38    -0.0030596847922758
  39     0.0026763262724671
  40    -1.1798146660196234
  41    -0.0040964128683629
  42    -0.0027912047937270
  43     0.0032428912361957
  44     0.0026480327008078
  45    -1.1801837092571270
  46    -0.0040892009326678
  47     0.0027943233402628
  48    -0.0032528105466254
 Ene=    0.229038
 Spin=  Alpha
 Occup=    0.000000
   1    -0.0978201112269056
   2     0.1236809416923793
   3     2.1925349616634318
   4     0.0832551938473451
   5     0.0000400807548518
   6     0.0001072697644180
   7     0.2488270312131459
   8     0.0000215046446005
   9     0.0003525017997762
  10    -0.0026288225560518
  11     0.0000015294868425
  12    -0.0008244651119140
  13    -0.0054088807027368
  14    -0.0000091690005885
  15     0.0878916424413233
  16    -0.1038305165475909
  17    -2.0139162887425219
  18     0.0784566113113355
  19     0.0000931057434878
  20    -0.0000010799474209
  21     0.2257888812794611
  22     0.0003925810146897
  23    -0.0000537542848009
  24     0.0020774218945130
  25     0.0000067732743750
  26    -0.0016085606913094
  27     0.0068208741811443
  28     0.0000012515178775
  29    -0.0181552489161372
  30    -1.2527524113561561
  31     0.0011426338470420
  32     0.0045036405826497
  33    -0.0012691013375820
  34    -0.0181383024282215
  35    -1.2522859169622194
  36     0.0011466937682313
  37    -0.0045027423673456
  38     0.0012732969625427
  39     0.0203365990848442
  40     1.1265132424646649
  41    -0.0001471110320696
  42     0.0051754370113414
  43     0.0014051766773837
  44     0.0203259841492330
  45     1.1251161305956980
  46    -0.0001547249756573
  47    -0.0051730389272864
  48    -0.0014127061551595
 Ene=    0.241595
 Spin=  Alpha
 Occup=    0.000000
   1    -0.0000451778030767
   2     0.0000504010972986
   3     0.0016503853067443
   4     0.0001967631309821
   5    -0.1897711667190918
   6    -0.1234416755667229
   7     0.0005634951164385
   8    -0.7170932946066614
   9    -0.5813269021180163
  10    -0.0000102777713190
  11    -0.0072626609870388
  12     0.0000041090995373
  13     0.0000015076468224
  14     0.0082660015332613
  15     0.0000061817404560
  16     0.0000319504630887
  17    -0.0006441995670193
  18    -0.0001046426857726
  19    -0.1952468635374510
  20     0.1176242780168837
  21    -0.0007734699598447
  22    -0.6438287581403556
  23     0.5445156144485509
  24    -0.0000044092167712
  25    -0.0072365812979510
  26    -0.0000054216589211
  27     0.0000076421690235
  28    -0.0078251435635996
  29     0.0071756663117151
  30     1.2059704150525652
  31    -0.0042468586298120
  32    -0.0045106899168778
  33    -0.0047796065005943
  34    -0.0071981230136109
  35    -1.2076336208939844
  36     0.0042608968841857
  37    -0.0045162271680989
  38    -0.0047715112925122
  39    -0.0063126762961114
  40    -1.1147404043907450
  41    -0.0036886284187702
  42    -0.0037016048996588
  43     0.0043333089975293
  44     0.0063223044831840
  45     1.1150370296988066
  46     0.0036912254159839
  47    -0.0037035906776303
  48     0.0043322029342606
 Ene=    0.293206
 Spin=  Alpha
 Occup=    0.000000
   1    -0.0000075484514751
   2    -0.0000199262581498
   3     0.0012511484940583
   4    -0.0000196738693278
   5     0.1804470929551545
   6     0.0798775490966441
   7    -0.0005388494238650
   8     1.4199630335368703
   9     0.2804302960024441
  10    -0.0000029472821323
  11    -0.0004495815004050
  12     0.0000100660048013
  13    -0.0000081685214573
  14     0.0190742780343301
  15     0.0000134228750454
  16     0.0000041001434910
  17    -0.0009057496127482
  18    -0.0000769954107302
  19    -0.1901291805715628
  20     0.0925480320525702
  21    -0.0006899517419348
  22    -1.3992168297555228
  23     0.2924313840674276
  24     0.0000033864569489
  25    -0.0003086742932293
  26     0.0000129609998094
  27     0.0000004993843665
  28     0.0163137544915050
  29     0.0292490062036308
  30    -1.5058418225875894
  31     0.0122359702035007
  32     0.0074022735668096
  33     0.0032782308497432
  34    -0.0292644360834594
  35     1.5050925458536997
  36    -0.0122377229544166
  37     0.0073948546067404
  38     0.0032677653942091
  39     0.0230994850280297
  40    -1.5082505098521168
  41    -0.0120396363150998
  42    -0.0066674658640608
  43     0.0035427156213926
  44    -0.0230744684903494
  45     1.5086194773592396
  46     0.0120432239292749
  47    -0.0066661138279542
  48     0.0035571734358724
 Ene=    0.475208
 Spin=  Alpha
 Occup=    0.000000
   1    -0.0658910033586658
   2     0.1195730922598727
   3     4.8022389884884484
   4    -0.1500248858401939
   5    -0.0000404783624463
   6    -0.0000706869438092
   7    -3.4059462626253723
   8    -0.0003035771564278
   9    -0.0021636809097736
  10    -0.0026900575409552
  11    -0.0000105122161891
  12     0.0138791574531317
  13    -0.0222896774823995
  14    -0.0000322396475445
  15     0.0663269515840006
  16    -0.1060757247324221
  17    -4.8671973968319442
  18    -0.1582709040588558
  19     0.0000255567774553
  20    -0.0001372544620047
  21    -3.3486052237365413
  22    -0.0000938492235738
  23    -0.0023319936494675
  24    -0.0015163887859773
  25     0.0000100513449302
  26     0.0100936295707279
  27     0.0180231285841053
  28     0.0000177180286844
  29     0.1358796408427534
  30     0.2190855381188203
  31    -0.0076467982224832
  32     0.0058323386052115
  33     0.0027092889842658
  34     0.1360400775108462
  35     0.2189622259093733
  36    -0.0076256513706912
  37    -0.0058368946704859
  38    -0.0027098484284788
  39    -0.0806838242304823
  40    -0.2407503885458489
  41    -0.0085284089416954
  42     0.0039620725685136
  43    -0.0019491871414832
  44    -0.0811150322163080
  45    -0.2399953367428418
  46    -0.0084824111381422
  47    -0.0039511252498760
  48     0.0019304378883090
 Ene=    0.569165
 Spin=  Alpha
 Occup=    0.000000
   1    -0.0933291792836769
   2     0.7818668919276563
   3    -0.5320900351053383
   4    -0.3923669529824127
   5    -0.0000858292687514
   6    -0.0001690986732041
   7     0.6186335702137390
   8     0.0001771939137973
   9     0.0006477483574121
  10    -0.0317465769297633
  11     0.0000582794267756
  12     0.0034437581215876
  13     0.0403334813105702
  14    -0.0000402747152030
  15    -0.0980974275747662
  16     0.8519138415998251
  17    -0.9748179741803886
  18     0.3705230250249725
  19    -0.0001307927596534
  20     0.0002690027996319
  21    -0.7974214928172967
  22     0.0003809248699599
  23    -0.0008151202886078
  24    -0.0344124055923312
  25     0.0000614044459198
  26    -0.0054738968868665
  27     0.0409058743328286
  28     0.0000747897509914
  29    -0.0514633362167229
  30     0.2223011438986133
  31     0.0321814203857870
  32    -0.0022275303335605
  33    -0.0021446372019535
  34    -0.0509319495819319
  35     0.2222360769982797
  36     0.0322409085693896
  37     0.0022308818775230
  38     0.0022092351091629
  39    -0.0025030811925489
  40     0.1768266734826095
  41    -0.0348854224237152
  42     0.0035153303281761
  43    -0.0026164187028293
  44    -0.0034942876336933
  45     0.1777697078579741
  46    -0.0348041656594435
  47    -0.0035077705747902
  48     0.0025511451615314
 Ene=    0.638666
 Spin=  Alpha
 Occup=    0.000000
   1     0.0675135774439886
   2    -0.6787152738135287
   3     2.6618616902169632
   4    -0.1524733572782914
   5     0.0002290834558425
   6    -0.0003229429559948
   7     0.4311698156299451
   8    -0.0011035013802539
   9    -0.0004133089682108
  10     0.0515589391708026
  11    -0.0000190924804797
  12    -0.0345984694933649
  13     0.0343866983622853
  14     0.0002053073486177
  15     0.0680220675053673
  16    -0.5469841960931914
  17     0.9006075656658907
  18     0.1054367727652836
  19     0.0000981124472012
  20     0.0001194721017100
  21    -1.2022238823857125
  22    -0.0006567275847637
  23    -0.0001061990040933
  24     0.0459036058431153
  25    -0.0000275670879106
  26     0.0228503850237875
  27     0.0324424236981380
  28    -0.0002006799507073
  29    -0.5372082267311408
  30    -0.4504409996267071
  31     0.0167992557978845
  32    -0.0163264099212954
  33    -0.0017927436258318
  34    -0.5391706283487339
  35    -0.4502637038840024
  36     0.0166315973465921
  37     0.0163317776158813
  38     0.0017389539303598
  39    -0.4479312045964926
  40    -0.4209369793949690
  41    -0.0179537939654851
  42     0.0130029029354008
  43     0.0004573398247494
  44    -0.4459901069909636
  45    -0.4213713787925511
  46    -0.0181128121270862
  47    -0.0129884995266692
  48    -0.0004363531141183
 Ene=    0.645243
 Spin=  Alpha
 Occup=    0.000000
   1     0.0002208653680382
   2    -0.0021504808905395
   3     0.0045728740556717
   4    -0.0000885512303809
   5    -0.0912973541979103
   6     0.0745140702632576
   7     0.0010383258351188
   8     0.5236173574359436
   9     0.4299478183783236
  10     0.0001377708508824
  11    -0.0062023414260467
  12    -0.0001552533509770
  13     0.0000570449164530
  14    -0.0996249700002034
  15     0.0001629869132206
  16    -0.0012677152132467
  17     0.0024601724584227
  18    -0.0001456464108674
  19    -0.0717723290011563
  20    -0.0451172662463195
  21     0.0002694405196339
  22     0.5243044143812007
  23    -0.4380947418754174
  24     0.0000814691250105
  25    -0.0069510096601437
  26     0.0001045491601907
  27     0.0000386129147467
  28     0.1060165760158138
  29    -0.5426388879718015
  30     0.0716198596814411
  31    -0.0513978286926263
  32    -0.0016794104682456
  33     0.0177631630637327
  34     0.5402476782012180
  35    -0.0738287733520948
  36     0.0513886076442836
  37    -0.0015976302906282
  38     0.0178430820205965
  39     0.5981292412868171
  40    -0.1678544820656953
  41    -0.0499921883483666
  42    -0.0016460597984155
  43    -0.0166525386911483
  44    -0.5989635091384727
  45     0.1666298242497971
  46     0.0500897512634701
  47    -0.0016412633401495
  48    -0.0165893820106380
 Ene=    0.715721
 Spin=  Alpha
 Occup=    0.000000
   1    -0.0000365886181558
   2     0.0006492996956938
   3    -0.0037462611283054
   4     0.0005485476761739
   5     0.2641620636750893
   6    -0.6547740296406732
   7     0.0003792478548339
   8    -0.3544350809896978
   9     0.5912341482764211
  10     0.0000320354926216
  11     0.0600133697801336
  12     0.0000531470933895
  13    -0.0000473992560288
  14     0.0064366612199451
  15     0.0000221980782579
  16    -0.0004970871926979
  17     0.0034385661235079
  18     0.0006399963678698
  19    -0.2546861551562195
  20    -0.6650953535286227
  21     0.0002766808611859
  22     0.3623149684049994
  23     0.5840296424725578
  24    -0.0000427331724907
  25    -0.0600423007219538
  26     0.0000463789736694
  27     0.0000468499347139
  28     0.0132802466797025
  29     0.0275741383224060
  30    -0.0995766618668141
  31    -0.0144767470838471
  32     0.0085728412657174
  33    -0.0120644198257508
  34    -0.0267115456038569
  35     0.1001666260476372
  36     0.0144624381694890
  37     0.0085537861938153
  38    -0.0120577466620842
  39     0.0503325848566814
  40    -0.1070111628622262
  41     0.0115390687212824
  42    -0.0082571884161968
  43    -0.0113435405168273
  44    -0.0511397613376244
  45     0.1066536976500815
  46    -0.0115579443895748
  47    -0.0082694703638729
  48    -0.0113426587465850
 Ene=    0.729099
 Spin=  Alpha
 Occup=    0.000000
   1    -0.0310164138451042
   2     0.6730785688062831
   3    -4.0005326755167401
   4     0.1709276610262834
   5    -0.0001122913011337
   6     0.0006392080021623
   7     0.8385492321212837
   8     0.0002496843541443
   9     0.0003983829454329
  10    -0.0399928868907830
  11    -0.0000286946204425
  12     0.0537534991423253
  13    -0.0008174755319269
  14    -0.0001048607708950
  15     0.0305992195679683
  16    -0.6877005194033549
  17     4.3167926154487608
  18     0.2353272355500560
  19     0.0000112567177558
  20     0.0008077460628311
  21     0.5179047773301856
  22     0.0007228792728973
  23    -0.0007256084448688
  24     0.0489709258723028
  25     0.0000066109204362
  26     0.0604281722480002
  27     0.0137161210434699
  28    -0.0000111843420042
  29     0.4640902094748234
  30     0.2897392838060979
  31    -0.0116490894729679
  32     0.0112129826259358
  33     0.0111715446990091
  34     0.4648031270253001
  35     0.2891244415648105
  36    -0.0115466844119634
  37    -0.0112401734092691
  38    -0.0111618662106479
  39    -0.5904125569646242
  40    -0.3740232733376462
  41    -0.0231081534591238
  42     0.0162393643546014
  43    -0.0115968080703908
  44    -0.5910919649732622
  45    -0.3744658085476700
  46    -0.0231214075978212
  47    -0.0161965160551407
  48     0.0115531650770304
 Ene=    0.800626
 Spin=  Alpha
 Occup=    0.000000
   1    -0.0000084391383058
   2     0.0000227739461530
   3     0.0000109488265374
   4     0.0004192887423502
   5     0.2913150720720667
   6    -0.7098723326853519
   7    -0.0006256694363513
   8    -0.2683532320415403
   9     0.9781260504232772
  10    -0.0000291252635790