[Molden Format]
[Atoms] Angs
 c       1                    6  6.697641377495e-01  1.972214342444e-20 -1.011974730045e-03
 c       2                    6 -6.697643904817e-01 -1.057106887550e-17  1.081092365222e-05
 h       3                    1  1.242030646990e+00  9.296244674035e-01  3.654784150764e-02
 h       4                    1  1.241985613848e+00 -9.298417318179e-01 -3.358473846985e-02
 h       5                    1 -1.242043463622e+00 -9.295419126729e-01 -3.946898285349e-02
 h       6                    1 -1.241971280822e+00  9.297591770872e-01  3.501286265406e-02
[GTO]
1
 s           5
      1.238401693800e+03      5.517365048110e-03
      1.862900499200e+02      4.108882855595e-02
      4.225117634600e+01      1.822538212649e-01
      1.167655793200e+01      4.682845943743e-01
      3.593050648200e+00      4.457581733600e-01
 s           1
      4.024514736300e-01      1.000000000000e+00
 s           1
      1.309018266800e-01      1.000000000000e+00
 p           3
      9.468097062100e+00      5.688833201104e-02
      2.010354514200e+00      3.129405933647e-01
      5.477100470700e-01      7.606501650914e-01
 p           1
      1.526861379500e-01      1.000000000000e+00
 d           1
      8.000000000000e-01      1.000000000000e+00

2
 s           5
      1.238401693800e+03      5.517365048110e-03
      1.862900499200e+02      4.108882855595e-02
      4.225117634600e+01      1.822538212649e-01
      1.167655793200e+01      4.682845943743e-01
      3.593050648200e+00      4.457581733600e-01
 s           1
      4.024514736300e-01      1.000000000000e+00
 s           1
      1.309018266800e-01      1.000000000000e+00
 p           3
      9.468097062100e+00      5.688833201104e-02
      2.010354514200e+00      3.129405933647e-01
      5.477100470700e-01      7.606501650914e-01
 p           1
      1.526861379500e-01      1.000000000000e+00
 d           1
      8.000000000000e-01      1.000000000000e+00

3
 s           3
      1.301070100000e+01      3.348548481299e-02
      1.962257200000e+00      2.347218708812e-01
      4.445379600000e-01      8.137702852596e-01
 s           1
      1.219496200000e-01      1.000000000000e+00
 p           1
      8.000000000000e-01      1.000000000000e+00

4
 s           3
      1.301070100000e+01      3.348548481299e-02
      1.962257200000e+00      2.347218708812e-01
      4.445379600000e-01      8.137702852596e-01
 s           1
      1.219496200000e-01      1.000000000000e+00
 p           1
      8.000000000000e-01      1.000000000000e+00

5
 s           3
      1.301070100000e+01      3.348548481299e-02
      1.962257200000e+00      2.347218708812e-01
      4.445379600000e-01      8.137702852596e-01
 s           1
      1.219496200000e-01      1.000000000000e+00
 p           1
      8.000000000000e-01      1.000000000000e+00

6
 s           3
      1.301070100000e+01      3.348548481299e-02
      1.962257200000e+00      2.347218708812e-01
      4.445379600000e-01      8.137702852596e-01
 s           1
      1.219496200000e-01      1.000000000000e+00
 p           1
      8.000000000000e-01      1.000000000000e+00


[5D]
[7F]
[9G]
[MO]
 Ene=  -11.253114
 Spin=  Alpha
 Occup=    2.000000
   1     0.7008152293614670
   2     0.0230099955335072
   3    -0.0112957208939218
   4     0.0010817265148155
   5    -0.0000002842900196
   6     0.0000069571955743
   7    -0.0004789604979017
   8     0.0000004912119035
   9    -0.0000125342500967
  10    -0.0007980765742835
  11     0.0000030064794102
  12     0.0000494135594785
  13     0.0000502387165114
  14    -0.0000001212116882
  15     0.7006334152582500
  16     0.0230029120436065
  17    -0.0112897515072734
  18    -0.0010819630753859
  19     0.0000002949611868
  20    -0.0000062773719438
  21     0.0004794686615993
  22    -0.0000005201730031
  23     0.0000117923476845
  24    -0.0007973106050318
  25     0.0000026795548357
  26     0.0000542877529963
  27     0.0000503768760924
  28    -0.0000001005209326
  29    -0.0014310786120227
  30     0.0032851870728505
  31     0.0000778629336202
  32     0.0007310555722696
  33     0.0000303557075681
  34    -0.0014310859865615
  35     0.0032851999193943
  36     0.0000778252365945
  37    -0.0007312816530520
  38    -0.0000245971729184
  39    -0.0014306155935561
  40     0.0032841051354277
  41    -0.0000776729843659
  42    -0.0007307347664725
  43    -0.0000320090738302
  44    -0.0014306011896242
  45     0.0032841551617623
  46    -0.0000776064455784
  47     0.0007309279926057
  48     0.0000267451558624
 Ene=  -11.251698
 Spin=  Alpha
 Occup=    2.000000
   1     0.7004594104462495
   2     0.0272755162252716
   3    -0.0229106561087640
   4    -0.0009205366013281
   5    -0.0000003946653661
   6     0.0000115558715301
   7     0.0019393866916449
   8     0.0000003491668216
   9    -0.0000126482647159
  10    -0.0016766931315280
  11     0.0000016053163188
  12     0.0001031847459317
  13     0.0001769522896106
  14    -0.0000000831088915
  15    -0.7006412693832013
  16    -0.0272814842648010
  17     0.0229135689080540
  18    -0.0009202628226070
  19    -0.0000004268889895
  20     0.0000107293045049
  21     0.0019392712961915
  22     0.0000004714779278
  23    -0.0000111851287958
  24     0.0016764954158484
  25    -0.0000011189936689
  26    -0.0001092208629901
  27    -0.0001771930870002
  28     0.0000000428017991
  29    -0.0018241693064351
  30     0.0040863919992627
  31     0.0007979096543453
  32     0.0010159245998133
  33     0.0000417542447139
  34    -0.0018241659665579
  35     0.0040863092529469
  36     0.0007978610957407
  37    -0.0010162357111927
  38    -0.0000346725205285
  39     0.0018245296452788
  40    -0.0040871414171633
  41     0.0007979473871645
  42     0.0010160237925450
  43     0.0000439563658796
  44     0.0018245510190631
  45    -0.0040872491730862
  46     0.0007978683893472
  47    -0.0010163200444176
  48    -0.0000376767227740
 Ene=   -1.028826
 Spin=  Alpha
 Occup=    2.000000
   1    -0.2006889315861331
   2     0.3873434618093782
   3     0.1108097831514215
   4    -0.1284113940635134
   5    -0.0000026356184056
   6     0.0001858755530045
   7    -0.0228489435941042
   8     0.0000024726610780
   9    -0.0000355367505347
  10    -0.0117069872742619
  11    -0.0000201692640109
  12     0.0002049807471413
  13     0.0147719068877332
  14    -0.0000001379425768
  15    -0.2006886627862155
  16     0.3873428754435335
  17     0.1108098481492607
  18     0.1284115925093438
  19     0.0000055815144550
  20    -0.0002037301057185
  21     0.0228489114193836
  22    -0.0000011427483789
  23     0.0000132792532973
  24    -0.0117057214796755
  25    -0.0000216974945963
  26     0.0002237235729840
  27     0.0147726422279648
  28    -0.0000000199631197
  29     0.1038496137337363
  30     0.0108834769690822
  31    -0.0095839521635222
  32    -0.0126884952031954
  33    -0.0005089285811809
  34     0.1038483630581794
  35     0.0108835599569441
  36    -0.0095831677957098
  37     0.0126909636868820
  38     0.0004531707282046
  39     0.1038471920753095
  40     0.0108831400280562
  41     0.0095838362103210
  42     0.0126873013174522
  43     0.0005297878520493
  44     0.1038502201067326
  45     0.0108836950153784
  46     0.0095832187351323
  47    -0.0126901887969886
  48    -0.0004819347285721
 Ene=   -0.786958
 Spin=  Alpha
 Occup=    2.000000
   1     0.1535764732275575
   2    -0.3066877290502657
   3    -0.1499599484346209
   4    -0.1580306728286287
   5     0.0000038597075776
   6     0.0001353323645146
   7    -0.0503033649362633
   8    -0.0000089480115186
   9     0.0003313440129960
  10     0.0037447388513140
  11    -0.0000664737467581
  12    -0.0006804365781877
  13     0.0118121382999177
  14     0.0000021607075285
  15    -0.1535767369171700
  16     0.3066882876351263
  17     0.1499600423777310
  18    -0.1580282937846998
  19    -0.0000041239821261
  20     0.0001664567658168
  21    -0.0503027129509200
  22    -0.0000132942037550
  23     0.0003281522420937
  24    -0.0037404513401238
  25     0.0000620798026368
  26     0.0007444768097154
  27    -0.0118095628261276
  28    -0.0000014078460978
  29    -0.1919750467155630
  30    -0.0358383885334342
  31     0.0074198024977935
  32     0.0172083237768421
  33     0.0007005847094261
  34    -0.1919826618108806
  35    -0.0358424966807844
  36     0.0074193686325613
  37    -0.0172127433669484
  38    -0.0005991998040320
  39     0.1919805435492051
  40     0.0358422200687335
  41     0.0074203512267251
  42     0.0172068654596234
  43     0.0007352247179872
  44     0.1919755680089337
  45     0.0358384714931382
  46     0.0074187923671119
  47    -0.0172110759491573
  48    -0.0006419826063338
 Ene=   -0.647184
 Spin=  Alpha
 Occup=    2.000000
   1     0.0000012447145440
   2    -0.0000029940317698
   3    -0.0000082771324734
   4     0.0000114194779838
   5     0.3170890048891541
   6     0.0122662589186942
   7     0.0000013899857734
   8     0.1258069425022602
   9     0.0052059350920862
  10     0.0000063805945449
  11     0.0000321248520749
  12     0.0000991316294760
  13     0.0000033387118298
  14     0.0013354872624366
  15     0.0000020019644674
  16    -0.0000046588975343
  17    -0.0000096562431908
  18     0.0000085322101943
  19     0.3170838266472034
  20     0.0123952813734742
  21     0.0000066043557539
  22     0.1258314029966658
  23     0.0045797076932101
  24    -0.0000062580918790
  25    -0.0000716875735098
  26    -0.0000888906489096
  27    -0.0000042070225393
  28    -0.0013339034623543
  29     0.2051266160279523
  30     0.0520959490385216
  31    -0.0100189444315778
  32    -0.0094278214496261
  33    -0.0003735648963715
  34    -0.2051217189577307
  35    -0.0520849955250769
  36     0.0100182932859103
  37    -0.0094307321347982
  38    -0.0003053893727858
  39    -0.2051225833798248
  40    -0.0520853425477695
  41    -0.0100188846101595
  42    -0.0094256540961071
  43    -0.0004238344786446
  44     0.2051257607266468
  45     0.0520953974927486
  46     0.0100183117287607
  47    -0.0094287839753703
  48    -0.0003637843884757
 Ene=   -0.597027
 Spin=  Alpha
 Occup=    2.000000
   1    -0.0090107288588630
   2     0.0307574911236711
   3    -0.0348255045510110
   4    -0.4069794501978755
   5     0.0000260963548979
   6    -0.0003450787884630
   7    -0.1398215974989997
   8     0.0000177645953229
   9    -0.0003567349933706
  10     0.0001435308177645
  11    -0.0000953531503765
  12    -0.0008293828097473
  13     0.0216966140549233
  14     0.0000024676127118
  15    -0.0090097698709712
  16     0.0307554066549008
  17    -0.0348270118218867
  18     0.4069800090578590
  19    -0.0000171209740760
  20     0.0001505881127620
  21     0.1398220252930292
  22    -0.0000128404524256
  23     0.0002386292042591
  24     0.0001401920620439
  25    -0.0001006221162989
  26    -0.0008796984545372
  27     0.0216947610599289
  28     0.0000025664281617
  29    -0.1704077538918612
  30    -0.0559253801763220
  31    -0.0004834762796831
  32     0.0118197246457105
  33     0.0004616291931668
  34    -0.1704109224319420
  35    -0.0559269775240869
  36    -0.0004838368243587
  37    -0.0118211567206239
  38    -0.0004260231739868
  39    -0.1704121677957294
  40    -0.0559273627351305
  41     0.0004830236108693
  42    -0.0118185867392134
  43    -0.0004953389735514
  44    -0.1704079278600511
  45    -0.0559254019500902
  46     0.0004842718503165
  47     0.0118199289386561
  48     0.0004555970488994
 Ene=   -0.509839
 Spin=  Alpha
 Occup=    2.000000
   1    -0.0000033657413708
   2     0.0000076660040384
   3     0.0000022726454427
   4     0.0000092091801444
   5     0.3020522564443171
   6     0.0084477835498968
   7     0.0000064533816410
   8     0.1397283522506333
   9     0.0031344924819450
  10     0.0000062948617571
  11     0.0012535631212627
  12     0.0001050795622045
  13     0.0000054051547168
  14     0.0272599404156573
  15     0.0000029635433015
  16    -0.0000066204402037
  17    -0.0000009558278035
  18    -0.0000092066439622
  19    -0.3017958749068139
  20    -0.0150345021606948
  21    -0.0000023869617302
  22    -0.1395497536299086
  23    -0.0077260075582818
  24     0.0000071960475578
  25     0.0008671791493078
  26     0.0000953346399282
  27     0.0000057571068406
  28     0.0272749044158525
  29     0.2569946968506493
  30     0.1143178523022280
  31    -0.0099963952853205
  32    -0.0087580601896674
  33    -0.0004423754252536
  34    -0.2569943691014370
  35    -0.1143174361163093
  36     0.0099963098518803
  37    -0.0087615096593766
  38    -0.0003699939274447
  39     0.2569942943532256
  40     0.1143176755934492
  41     0.0099968389478793
  42     0.0087634124155533
  43     0.0003074090493402
  44    -0.2569946391978389
  45    -0.1143174291894010
  46    -0.0099958110432307
  47     0.0087664705981442
  48     0.0002432148297504
 Ene=    0.000000
 Spin=  Alpha
 Occup=    1.465805
   1    -0.0000936588586722
   2     0.0002886976414505
   3    -0.0002722304275636
   4    -0.0001852572817632
   5     0.0120324897029271
   6    -0.3779587348392368
   7    -0.0000223551290705
   8     0.0104621735519649
   9    -0.3016075070508145
  10    -0.0000981470628483
  11     0.0345079697362555
  12     0.0000042146493490
  13     0.0000076993445571
  14    -0.0015898951258741
  15     0.0000987847543701
  16    -0.0002956436992779
  17     0.0002864977782375
  18    -0.0004105321034143
  19     0.0173554602052440
  20    -0.3777534930157121
  21    -0.0001116158709403
  22     0.0129917735260397
  23    -0.3015117548250528
  24     0.0000925773756284
  25    -0.0345271029768416
  26    -0.0000055015471773
  27    -0.0000186909362185
  28     0.0010947248057947
  29    -0.0023773673329815
  30    -0.0007499752256088
  31     0.0001030330955546
  32     0.0004651004555117
  33    -0.0092380332769162
  34     0.0018613360312260
  35     0.0014957823908387
  36    -0.0000260547717147
  37     0.0003711891803796
  38    -0.0092422025547545
  39    -0.0018086228833295
  40    -0.0014465786763684
  41    -0.0000315713730948
  42     0.0003493190636673
  43    -0.0092430532497639
  44     0.0024300745962377
  45     0.0007991677971303
  46     0.0000975105661867
  47     0.0002520568570574
  48    -0.0092464966339864
 Ene=    0.000000
 Spin=  Alpha
 Occup=    0.534195
   1     0.0009185559271817
   2    -0.0021783556980742
   3    -0.0120183341906772
   4    -0.0018685719832232
   5    -0.0135237542949897
   6     0.3561355873410729
   7    -0.0043826971894922
   8    -0.0262419512300430
   9     0.7384378499057139
  10    -0.0000354361351318
  11     0.0197647318258317
  12     0.0000046508466873
  13    -0.0000620010404881
  14    -0.0011269529072553
  15     0.0008494587073705
  16    -0.0020149558064423
  17    -0.0113076554037202
  18     0.0018966378207899
  19     0.0141737219238534
  20    -0.3561093156887137
  21     0.0044393063063884
  22     0.0311826791249537
  23    -0.7382466743508485
  24    -0.0000356417810550
  25     0.0197924536440559
  26     0.0000040567491432
  27    -0.0000709612049855
  28    -0.0004113281265617
  29    -0.0001452102171059
  30     0.0059305063173874
  31    -0.0001208510603644
  32    -0.0006354999950033
  33     0.0186519932475242
  34     0.0020498830368409
  35     0.0095585407615785
  36     0.0000050406972033
  37    -0.0006703754018138
  38     0.0186499288214463
  39     0.0019839166166184
  40     0.0093450816232681
  41    -0.0000033552496223
  42     0.0007740695556479
  43    -0.0186458533840766
  44    -0.0002111851747420
  45     0.0057170592971938
  46     0.0001225398728523
  47     0.0008207823036646
  48    -0.0186447232403566
 Ene=    0.202858
 Spin=  Alpha
 Occup=    0.000000
   1    -0.0738424819258375
   2     0.1229471535232404
   3     1.5734692110900397
   4     0.1301630914181213
   5    -0.0001042040480984
   6     0.0029894240752511
   7     0.5646122936925257
   8    -0.0003155689807745
   9     0.0089894757814123
  10    -0.0025986977975933
  11     0.0002004165401591
  12     0.0000156672470212
  13     0.0036903564603973
  14    -0.0000092205728586
  15    -0.0738428221066087
  16     0.1229479111573146
  17     1.5734678094291827
  18    -0.1301633774468585
  19     0.0001337895995068
  20    -0.0029472649925277
  21    -0.5646113612543874
  22     0.0004098461263902
  23    -0.0088024465577664
  24    -0.0025965594780323
  25     0.0001991238229884
  26     0.0000472776263447
  27     0.0036915844149188
  28    -0.0000067068021637
  29    -0.0055492885637755
  30    -1.1108900718208541
  31     0.0051437572999401
  32     0.0019594684251816
  33     0.0001792420219543
  34    -0.0055410248667979
  35    -1.1107686469036027
  36     0.0051435915616626
  37    -0.0019684700844420
  38     0.0000590520263277
  39    -0.0055416387630097
  40    -1.1107656147506877
  41    -0.0051437598989917
  42    -0.0019575947132628
  43    -0.0002116475812829
  44    -0.0055501468045012
  45    -1.1108895064968407
  46    -0.0051436339611743
  47     0.0019677517453714
  48    -0.0000264412185869
 Ene=    0.226847
 Spin=  Alpha
 Occup=    0.000000
   1     0.0000007971980426
   2    -0.0000027839503375
   3    -0.0000228048405064
   4     0.0000021199370160
   5     0.2202497906178733
   6     0.0077707206928905
   7    -0.0000004333626915
   8     0.7520818909644424
   9     0.0264333387041873
  10     0.0000034967924958
  11    -0.0006069908904348
  12     0.0000508422092898
  13     0.0000008585810225
  14    -0.0145609947297282
  15     0.0000052638341951
  16    -0.0000090925180188
  17    -0.0001066378436919
  18     0.0000147534458071
  19     0.2201880075983045
  20     0.0093569216582126
  21     0.0000580974256211
  22     0.7518662002018860
  23     0.0320518598606152
  24    -0.0000033104912725
  25     0.0005256179772395
  26    -0.0000506111343841
  27    -0.0000010846589752
  28     0.0145641440764161
  29    -0.0342104374770734
  30    -1.1456957549087727
  31     0.0022860975845271
  32     0.0047336758747889
  33     0.0001572848424072
  34     0.0342075938406956
  35     1.1457432642898147
  36    -0.0022864099000387
  37     0.0047347298539090
  38     0.0001366501141030
  39     0.0342085673608880
  40     1.1457942041895306
  41     0.0022866385891160
  42     0.0047310498187013
  43     0.0002326337177538
  44    -0.0342093444238226
  45    -1.1456470950991273
  46    -0.0022858855464690
  47     0.0047316287764673
  48     0.0002096165391128
 Ene=    0.237378
 Spin=  Alpha
 Occup=    0.000000
   1     0.0943030690660197
   2    -0.1241327815682087
   3    -2.2413273121709927
   4    -0.0803559114460180
   5     0.0000289843542016
   6    -0.0005000026319021
   7    -0.2001309446102640
   8     0.0001203416612903
   9    -0.0022960412256637
  10     0.0034616162662271
  11     0.0000178069601741
  12    -0.0005647005993611
  13     0.0081899029359696
  14    -0.0000011804440561
  15    -0.0943033653041458
  16     0.1241332956884433
  17     2.2413282672410206
  18    -0.0803561953109530
  19     0.0000192894973658
  20    -0.0003827103470628
  21    -0.2001308459441863
  22     0.0000852694037683
  23    -0.0017854306564224
  24    -0.0034632139811371
  25    -0.0000254852990439
  26     0.0005404021026183
  27    -0.0081907800915530
  28     0.0000018894164641
  29     0.0062998943475836
  30     1.2482247995773876
  31     0.0002933684926389
  32    -0.0057969506218599
  33    -0.0002125438785218
  34     0.0063000759747442
  35     1.2482936700178633
  36     0.0002932563510798
  37     0.0057958875776882
  38     0.0002487834500293
  39    -0.0063000947788404
  40    -1.2482405395659983
  41     0.0002930550477798
  42    -0.0057975381859842
  43    -0.0001993770631035
  44    -0.0063009976191709
  45    -1.2482790348500106
  46     0.0002934488350388
  47     0.0057959808078950
  48     0.0002409587529817
 Ene=    0.300910
 Spin=  Alpha
 Occup=    0.000000
   1     0.0000009330172467
   2    -0.0000013100270558
   3    -0.0000643476636330
   4    -0.0000062092259798
   5    -0.1971802907962694
   6    -0.0072974631631476
   7    -0.0000264696042228
   8    -1.5842140016597510
   9    -0.0606156408198864
  10    -0.0000021582261345
  11    -0.0007595682876986
  12    -0.0000396599376913
  13    -0.0000021033416180
  14    -0.0191285930661335
  15    -0.0000011056682297
  16     0.0000020684292668
  17     0.0000711270534819
  18     0.0000062124153490
  19     0.1971511867024569
  20     0.0080371943606784
  21     0.0000690099463826
  22     1.5841379605150121
  23     0.0625943799601636
  24    -0.0000025154624899
  25    -0.0007282195069706
  26    -0.0000274503565047
  27    -0.0000028519142829
  28    -0.0191298856075199
  29    -0.0241132445888362
  30     1.6294469972320127
  31    -0.0131946350384067
  32    -0.0090065541600663
  33    -0.0003335874300679
  34     0.0241099266505265
  35    -1.6294054972982046
  36     0.0131942964110839
  37    -0.0090062789619358
  38    -0.0003456331274806
  39    -0.0241098831347641
  40     1.6294002001846517
  41     0.0131948321924216
  42     0.0090053989980337
  43     0.0003495628667281
  44     0.0241139934271302
  45    -1.6294496370115459
  46    -0.0131940897234845
  47     0.0090058888913939
  48     0.0003721133182992
 Ene=    0.478929
 Spin=  Alpha
 Occup=    0.000000
   1    -0.0585903323914573
   2     0.0788500361420845
   3     5.1518518169763805
   4    -0.1667117115033780
   5     0.0000189426768407
   6    -0.0004222814077159
   7    -3.4847398789203772
   8     0.0000058684946216
   9     0.0023108391538708
  10    -0.0031180817837108
  11     0.0000645515442869
  12     0.0010376977284899
  13    -0.0225704999691673
  14    -0.0000016343381643
  15     0.0585905226248112
  16    -0.0788515311226975
  17    -5.1518508437591661
  18    -0.1667113598475779
  19     0.0000240458150777
  20    -0.0004196122174032
  21    -3.4847411630546179
  22     0.0000221898530421
  23     0.0023599664757607
  24     0.0031114601173004
  25    -0.0000693197636505
  26    -0.0011404664136950
  27     0.0225666320571252
  28     0.0000011524084443
  29     0.1009054386100352
  30     0.2369355085357779
  31    -0.0055656833982631
  32     0.0066180097522668
  33     0.0002252651781218
  34     0.1009063753483665
  35     0.2369246643127726
  36    -0.0055659434400367
  37    -0.0066163390228966
  38    -0.0002591600277656
  39    -0.1009065675516262
  40    -0.2369229141880332
  41    -0.0055658817066191
  42     0.0066168235760841
  43     0.0002577940552361
  44    -0.1009097676113558
  45    -0.2369329485227220
  46    -0.0055657814896850
  47    -0.0066153012618562
  48    -0.0002870020051489
 Ene=    0.559089
 Spin=  Alpha
 Occup=    0.000000
   1     0.0940848868469472
   2    -0.8132745048490528
   3     0.7565999309797210
   4     0.3737821849437206
   5    -0.0000117541409701
   6     0.0000551582776626
   7    -0.7233365126871086
   8     0.0000087550387814
   9     0.0001890119294422
  10     0.0321417676080768
  11     0.0000304030076624
  12    -0.0006233289290168
  13    -0.0392589107795223
  14     0.0000025154824527
  15     0.0940846488625672
  16    -0.8132722774872879
  17     0.7565893174593388
  18    -0.3737825335242362
  19     0.0000148757726639
  20    -0.0000339171488197
  21     0.7233327958630480
  22    -0.0000218222272944
  23    -0.0001847254806227
  24     0.0321395696964182
  25     0.0000369495242492
  26    -0.0006548804900026
  27    -0.0392601471488858
  28    -0.0000005248681665
  29     0.0299217685514349
  30    -0.2075277304494646
  31    -0.0309291022815474
  32     0.0027290257449135
  33     0.0001534373069222
  34     0.0299038740077022
  35    -0.2075165223491475
  36    -0.0309312135837608
  37    -0.0027315473233698
  38    -0.0000386779694379
  39     0.0299030295596235
  40    -0.2075130086780269
  41     0.0309311879391909
  42    -0.0027283022562741
  43    -0.0001734864676642
  44     0.0299243150697605
  45    -0.2075327071876282
  46     0.0309290434528141
  47     0.0027307217654583
  48     0.0000590376952883
 Ene=    0.610757
 Spin=  Alpha
 Occup=    0.000000
   1     0.0000213587303382
   2    -0.0001887832716509
   3     0.0004977004596773
   4    -0.0000334549321575
   5    -0.0697392683433338
   6    -0.0032315791442581
   7     0.0002279536703466
   8     0.5287858183684591
   9     0.0177415613456010
  10    -0.0000018964966628
  11    -0.0039823712925353
  12    -0.0002759053779217
  13    -0.0000067940722453
  14    -0.1023847807836493
  15     0.0000214978424579
  16    -0.0001875535933909
  17     0.0005196645918117
  18     0.0000291479557565
  19    -0.0697782945628473
  20    -0.0021938988315430
  21    -0.0001809689581772
  22     0.5285588450460024
  23     0.0233761756843643
  24     0.0000319430992007
  25     0.0039806726255061
  26     0.0002342799096720
  27     0.0000252681872842
  28     0.1023846343934242
  29    -0.5653124783084678
  30     0.1510351601394669
  31    -0.0514008504181121
  32     0.0024987230295553
  33    -0.0000887924932669
  34     0.5650573243019681
  35    -0.1512871123457751
  36     0.0514079868571490
  37     0.0024929417778790
  38     0.0001122908963074
  39     0.5650610354077141
  40    -0.1512919972972845
  41    -0.0514077033244830
  42     0.0024967049529592
  43     0.0000950065243799
  44    -0.5653039180539901
  45     0.1510300280371695
  46     0.0514016371849618
  47     0.0024819825182901
  48     0.0002692300259121
 Ene=    0.615181
 Spin=  Alpha
 Occup=    0.000000
   1     0.0762125155580922
   2    -0.6445155097838777
   3     1.7694854029212912
   4    -0.1488992063033051
   5    -0.0000027948617547
   6     0.0006559562211780
   7     0.8016209832020698
   8    -0.0003194349499283
   9     0.0039568953643580
  10     0.0554868648580919
  11     0.0000369453307641
  12    -0.0050660532231503
  13     0.0362694162082403
  14     0.0000247043030126
  15     0.0762122124848104
  16    -0.6445192146916251
  17     1.7695464698333372
  18     0.1489010541203470
  19     0.0000328052822805
  20    -0.0005340472351280
  21    -0.8015901513821050
  22     0.0000482101353610
  23    -0.0038790788374911
  24     0.0554753641685188
  25     0.0000634788696483
  26    -0.0052440580973162
  27     0.0362626640227654
  28    -0.0000330525874014
  29    -0.4665209299289218
  30    -0.4175874461825015
  31     0.0177857681484869
  32    -0.0098832660093895
  33    -0.0001384880711302
  34    -0.4668258015678290
  35    -0.4175150114797723
  36     0.0177581604108505
  37     0.0098612358755178
  38     0.0006586696627358
  39    -0.4668304700427005
  40    -0.4175024183124200
  41    -0.0177577991429784
  42     0.0098829915410309
  43     0.0001253001143488
  44    -0.4665263742074135
  45    -0.4175927273590074
  46    -0.0177864559871342
  47    -0.0098639881363413
  48    -0.0006132653609339
 Ene=    0.700440
 Spin=  Alpha
 Occup=    0.000000
   1    -0.0007766543157822
   2     0.0064536680957146
   3    -0.0286255631577162
   4     0.0012758599800810
   5     0.0265464316876983
   6    -0.7044814037176538
   7     0.0070073752182347
   8    -0.0229694696402537
   9     0.6131441133541984
  10    -0.0002433906732292
  11     0.0632931322862413
  12     0.0000127124001664
  13     0.0000267674213832
  14    -0.0025093302143742
  15     0.0007606949169567
  16    -0.0064639820661547
  17     0.0289986068149316
  18     0.0011868506749561
  19     0.0282422583475869
  20    -0.7044148096660791
  21     0.0069082208001115
  22    -0.0247157709243142
  23     0.6130750560800831
  24     0.0002639779764746
  25    -0.0632968267810911
  26    -0.0000160870247474
  27    -0.0000160941093781
  28     0.0024134719739368
  29     0.0011708253268682
  30     0.0025126088315434
  31     0.0000317745501625
  32     0.0005377107085758
  33    -0.0135747691178775
  34     0.0016114762739972
  35     0.0010962393675066
  36    -0.0000299049201289
  37     0.0004234316654638
  38    -0.0135787586818882
  39    -0.0017697995652529
  40    -0.0012322645902041
  41    -0.0000453869879152
  42     0.0006329266252798
  43    -0.0135702850322072
  44    -0.0013291900482678
  45    -0.0026486702113093
  46     0.0000162923422275
  47     0.0005175148637101
  48    -0.0135757574474139
 Ene=    0.741509
 Spin=  Alpha
 Occup=    0.000000
   1    -0.0066405453472155
   2     0.5598734261175931
   3    -4.0785671978877440
   4     0.1729630564603512
   5    -0.0001214771609355
   6     0.0030661726833559
   7     0.6800976915154101
   8     0.0001917711280985
   9    -0.0056172912438762
  10    -0.0710807818791025
  11     0.0000340803592798
  12     0.0053886462263317
  13    -0.0225206452913194
  14    -0.0000006556020069
  15     0.0066392770732078
  16    -0.5598642713336743
  17     4.0785332623761015
  18     0.1729589399896847
  19    -0.0001329246275772
  20     0.0031281316880628
  21     0.6801149655236878
  22     0.0002028540455209
  23    -0.0051961446237608
  24     0.0710425245993234
  25    -0.0000275312308417
  26    -0.0059519809952947
  27     0.0224985071412389
  28    -0.0000004318932972
  29     0.5777430984690332
  30     0.3137621868188009
  31    -0.0085892967588896
  32     0.0321952792040014
  33     0.0011076661813118
  34     0.5777556408480118
  35     0.3137497435151559
  36    -0.0085898632360470
  37    -0.0321876859758357
  38    -0.0012662931219488
  39    -0.5777478494627122
  40    -0.3137285958121616
  41    -0.0085880615302315
  42     0.0321882655662780
  43     0.0012666837301920
  44    -0.5777435924645018
  45    -0.3137568823860450
  46    -0.0085901891024916
  47    -0.0321849149438556
  48    -0.0013663869574384
 Ene=    0.805681
 Spin=  Alpha
 Occup=    0.000000
   1    -0.0006219491927996
   2     0.0027951360614513
   3    -0.0037352452594968
   4     0.0015169979511195
   5     0.0290459897626728
   6    -0.7771148638737355
   7    -0.0010013427535311
   8    -0.0411795515366947
   9     1.0965520107400322
  10     0.0003073719001364