[Molden Format]
[Atoms] Angs
 c       1                    6  6.550000000000e-01 -0.000000000000e+00 -1.000000000000e-03
 c       2                    6 -6.550000000000e-01  0.000000000000e+00 -5.000000000000e-04
 h       3                    1  1.195000000000e+00  9.353000000000e-01  0.000000000000e+00
 h       4                    1  1.195000000000e+00 -9.353000000000e-01  2.200000000000e-03
 h       5                    1 -1.195000000000e+00 -9.353000000000e-01 -1.500000000000e-03
 h       6                    1 -1.195000000000e+00  9.353000000000e-01  8.000000000000e-04
[GTO]
1
 s           5
      1.238401693800e+03      5.517365048110e-03
      1.862900499200e+02      4.108882855595e-02
      4.225117634600e+01      1.822538212649e-01
      1.167655793200e+01      4.682845943743e-01
      3.593050648200e+00      4.457581733600e-01
 s           1
      4.024514736300e-01      1.000000000000e+00
 s           1
      1.309018266800e-01      1.000000000000e+00
 p           3
      9.468097062100e+00      5.688833201104e-02
      2.010354514200e+00      3.129405933647e-01
      5.477100470700e-01      7.606501650914e-01
 p           1
      1.526861379500e-01      1.000000000000e+00
 d           1
      8.000000000000e-01      1.000000000000e+00

2
 s           5
      1.238401693800e+03      5.517365048110e-03
      1.862900499200e+02      4.108882855595e-02
      4.225117634600e+01      1.822538212649e-01
      1.167655793200e+01      4.682845943743e-01
      3.593050648200e+00      4.457581733600e-01
 s           1
      4.024514736300e-01      1.000000000000e+00
 s           1
      1.309018266800e-01      1.000000000000e+00
 p           3
      9.468097062100e+00      5.688833201104e-02
      2.010354514200e+00      3.129405933647e-01
      5.477100470700e-01      7.606501650914e-01
 p           1
      1.526861379500e-01      1.000000000000e+00
 d           1
      8.000000000000e-01      1.000000000000e+00

3
 s           3
      1.301070100000e+01      3.348548481299e-02
      1.962257200000e+00      2.347218708812e-01
      4.445379600000e-01      8.137702852596e-01
 s           1
      1.219496200000e-01      1.000000000000e+00
 p           1
      8.000000000000e-01      1.000000000000e+00

4
 s           3
      1.301070100000e+01      3.348548481299e-02
      1.962257200000e+00      2.347218708812e-01
      4.445379600000e-01      8.137702852596e-01
 s           1
      1.219496200000e-01      1.000000000000e+00
 p           1
      8.000000000000e-01      1.000000000000e+00

5
 s           3
      1.301070100000e+01      3.348548481299e-02
      1.962257200000e+00      2.347218708812e-01
      4.445379600000e-01      8.137702852596e-01
 s           1
      1.219496200000e-01      1.000000000000e+00
 p           1
      8.000000000000e-01      1.000000000000e+00

6
 s           3
      1.301070100000e+01      3.348548481299e-02
      1.962257200000e+00      2.347218708812e-01
      4.445379600000e-01      8.137702852596e-01
 s           1
      1.219496200000e-01      1.000000000000e+00
 p           1
      8.000000000000e-01      1.000000000000e+00


[5D]
[7F]
[9G]
[MO]
 Ene=  -11.230256
 Spin=  Alpha
 Occup=    2.000000
   1    -0.7005857894625847
   2    -0.0231854294495223
   3     0.0115561589920312
   4    -0.0011740719904833
   5    -0.0000000027442091
   6    -0.0000037015077370
   7     0.0005702035229593
   8    -0.0000000018535149
   9     0.0000069841680541
  10     0.0008393372906843
  11    -0.0000021835787463
  12     0.0000020306815408
  13    -0.0001643770827204
  14    -0.0000000078090135
  15    -0.7006388124188386
  16    -0.0231875397134668
  17     0.0115579317007692
  18     0.0011740291060666
  19    -0.0000000006990235
  20    -0.0000002784861368
  21    -0.0005700686631013
  22    -0.0000000011768500
  23    -0.0000013259958486
  24     0.0008394794512025
  25    -0.0000004112395473
  26    -0.0000020998723208
  27    -0.0001643593342916
  28    -0.0000000023459956
  29     0.0014454771866529
  30    -0.0034118613585852
  31    -0.0000562627010116
  32    -0.0007131010951046
  33    -0.0000016546063853
  34     0.0014454628823020
  35    -0.0034118553552599
  36    -0.0000562695553736
  37     0.0007131078527694
  38    -0.0000032374868074
  39     0.0014456399854500
  40    -0.0034121915982735
  41     0.0000563335266326
  42     0.0007131870463551
  43     0.0000008863111656
  44     0.0014456384006191
  45    -0.0034121839038336
  46     0.0000563348522352
  47    -0.0007131868273306
  48    -0.0000007729994038
 Ene=  -11.228426
 Spin=  Alpha
 Occup=    2.000000
   1    -0.7005689339482656
   2    -0.0277209573392562
   3     0.0240339617712394
   4     0.0006335580686201
   5    -0.0000000182860109
   6    -0.0000070642734246
   7    -0.0020896784564991
   8     0.0000000741600713
   9     0.0000099238486108
  10     0.0017033381283598
  11    -0.0000026623732033
  12     0.0000028517408865
  13     0.0002031828795754
  14    -0.0000000112880888
  15     0.7005158999845306
  16     0.0277192284371810
  17    -0.0240331174464490
  18     0.0006336312701159
  19     0.0000000011897882
  20    -0.0000018194092903
  21    -0.0020897115437564
  22    -0.0000000502574211
  23    -0.0000003780588812
  24    -0.0017032899725402
  25    -0.0000015497449096
  26     0.0000030202270489
  27    -0.0002032062907368
  28    -0.0000000031205065
  29     0.0020494558486538
  30    -0.0043263342123950
  31    -0.0008858147346796
  32    -0.0010906342410377
  33    -0.0000023744354678
  34     0.0020494475629904
  35    -0.0043262336198096
  36    -0.0008858220598754
  37     0.0010906345729206
  38    -0.0000048372213031
  39    -0.0020493707370022
  40     0.0043260205052040
  41    -0.0008858228506911
  42    -0.0010905825809015
  43    -0.0000008565992612
  44    -0.0020493567909970
  45     0.0043260668388361
  46    -0.0008858201742845
  47     0.0010905844499370
  48     0.0000017226592213
 Ene=   -1.030176
 Spin=  Alpha
 Occup=    2.000000
   1    -0.2013243227816906
   2     0.3779069913754599
   3     0.1154327225927067
   4    -0.1260043755683710
   5     0.0000004083583724
   6     0.0001494104589781
   7    -0.0207180882022545
   8    -0.0000003011487594
   9    -0.0000021027874916
  10    -0.0098133985140726
  11    -0.0000098246644069
  12    -0.0000039472160660
  13     0.0147853899714070
  14     0.0000000082012065
  15    -0.2013247771789612
  16     0.3779076099096772
  17     0.1154332171511057
  18     0.1260040230436985
  19     0.0000000034610283
  20    -0.0000116656711187
  21     0.0207180939057007
  22     0.0000002800735776
  23     0.0000198665323044
  24    -0.0098133972440369
  25    -0.0000073300850770
  26     0.0000040654864147
  27     0.0147853484076455
  28     0.0000000122306159
  29     0.1073080394888365
  30     0.0088107796900360
  31    -0.0098188739764274
  32    -0.0140422307001080
  33    -0.0000104483258658
  34     0.1073070725889592
  35     0.0088105153832508
  36    -0.0098187385347478
  37     0.0140420739678438
  38    -0.0000457475593447
  39     0.1073082427349874
  40     0.0088107045518963
  41     0.0098188731095688
  42     0.0140422855581667
  43     0.0000154666314837
  44     0.1073081253910604
  45     0.0088104856931291
  46     0.0098188683920159
  47    -0.0140422729312601
  48    -0.0000213347614067
 Ene=   -0.777337
 Spin=  Alpha
 Occup=    2.000000
   1     0.1523764836276866
   2    -0.3008665504522001
   3    -0.1076548455172557
   4    -0.1616260357683829
   5    -0.0000021141182364
   6    -0.0003194226861386
   7    -0.0691178034529662
   8     0.0000000856550999
   9    -0.0000518967134113
  10     0.0043120407203265
  11    -0.0000254040978379
  12     0.0000204540743494
  13     0.0119848012852230
  14    -0.0000001147916324
  15    -0.1523761355391319
  16     0.3008656421005287
  17     0.1076545292817167
  18    -0.1616283687544314
  19    -0.0000008380996180
  20    -0.0000397685878201
  21    -0.0691183716438306
  22    -0.0000006561683909
  23    -0.0000165544745854
  24    -0.0043120985132080
  25    -0.0000105997002125
  26     0.0000214947656049
  27    -0.0119849372802728
  28    -0.0000000391000929
  29    -0.1960993994203442
  30    -0.0391725691319453
  31     0.0067742378896677
  32     0.0179169199082690
  33     0.0000131509208200
  34    -0.1960962433795266
  35    -0.0391716626910063
  36     0.0067740339771080
  37    -0.0179166689816035
  38     0.0000610019303714
  39     0.1960990242437346
  40     0.0391720291700200
  41     0.0067741723557456
  42     0.0179169393088935
  43     0.0000216093547319
  44     0.1960980905723604
  45     0.0391722404734048
  46     0.0067741115780335
  47    -0.0179168644721817
  48    -0.0000281584504281
 Ene=   -0.651565
 Spin=  Alpha
 Occup=    2.000000
   1    -0.0000007347768655
   2     0.0000017320913376
   3     0.0000005351758505
   4    -0.0000021023753819
   5    -0.3135499730617076
   6     0.0001912371452685
   7    -0.0000001711538021
   8    -0.1173644068116883
   9     0.0000495703814880
  10     0.0000000957096568
  11     0.0000201855858403
  12    -0.0000645013822465
  13     0.0000001714749343
  14    -0.0021124768105241
  15     0.0000004683473283
  16    -0.0000009650264166
  17    -0.0000002780059491
  18     0.0000032952117887
  19    -0.3135536136686662
  20    -0.0002080106935403
  21     0.0000012730640697
  22    -0.1173650365532656
  23    -0.0000558480984735
  24     0.0000000305316306
  25     0.0000202984928833
  26    -0.0000025522638802
  27     0.0000001757992501
  28     0.0021128774850310
  29    -0.2081826358444964
  30    -0.0546850441383430
  31     0.0095373042970164
  32     0.0099698030770716
  33     0.0000223526376859
  34     0.2081819919070386
  35     0.0546851548812233
  36    -0.0095373421745276
  37     0.0099697032627120
  38    -0.0000541917440627
  39     0.2081835469949718
  40     0.0546854275610106
  41     0.0095374363773236
  42     0.0099697913088608
  43     0.0000145901029473
  44    -0.2081872619504584
  45    -0.0546866567050309
  46    -0.0095374703015879
  47     0.0099700633675621
  48     0.0000183154996332
 Ene=   -0.584382
 Spin=  Alpha
 Occup=    2.000000
   1     0.0122838210582739
   2    -0.0317266129391018
   3     0.0296768239500151
   4     0.4091259059724892
   5    -0.0000005432735793
   6     0.0004282544373305
   7     0.1440378111219910
   8    -0.0000009533725854
   9     0.0001847002530294
  10    -0.0019082428067443
  11     0.0000309627236816
  12    -0.0000192463001311
  13    -0.0210474576588501
  14     0.0000002050133071
  15     0.0122842387970155
  16    -0.0317275667693752
  17     0.0296753929822463
  18    -0.4091255053612506
  19    -0.0000031754363977
  20     0.0003092051058141
  21    -0.1440378236812120
  22    -0.0000009165266951
  23     0.0001215545495064
  24    -0.0019083594752274
  25     0.0000398366472018
  26     0.0000205483225993
  27    -0.0210473908686234
  28     0.0000001279977643
  29     0.1693524369666857
  30     0.0591915615460838
  31     0.0021496055953512
  32    -0.0113308094419813
  33    -0.0000037739041555
  34     0.1693530466467857
  35     0.0591914193706474
  36     0.0021495455890643
  37     0.0113308714531548
  38    -0.0000338108345772
  39     0.1693541214667333
  40     0.0591920751969470
  41    -0.0021495302609071
  42     0.0113308603476740
  43     0.0000207536104012
  44     0.1693497296917371
  45     0.0591902521147690
  46    -0.0021496975034650
  47    -0.0113307072661534
  48    -0.0000104944715046
 Ene=   -0.506702
 Spin=  Alpha
 Occup=    2.000000
   1    -0.0000003007910567
   2     0.0000005930469311
   3    -0.0000002107597575
   4    -0.0000003395861866
   5     0.2981556715874717
   6    -0.0009128322793680
   7    -0.0000006580151912
   8     0.1263266427398418
   9    -0.0004646544801459
  10    -0.0000001906346075
  11     0.0000397218957893
  12     0.0000684722308629
  13    -0.0000000195076525
  14     0.0289213593815484
  15    -0.0000000301343908
  16     0.0000000806406646
  17    -0.0000003789281971
  18     0.0000001245006516
  19    -0.2981524204159169
  20    -0.0009287718201102
  21    -0.0000001155823125
  22    -0.1263245235192546
  23    -0.0004714059789589
  24     0.0000000250919556
  25    -0.0000381756310506
  26     0.0000017413870921
  27     0.0000000088479918
  28     0.0289214930775174
  29     0.2618109960428039
  30     0.1222870432574963
  31    -0.0087196321870438
  32    -0.0093471692424264
  33    -0.0000419823348974
  34    -0.2618124265032138
  35    -0.1222875577083209
  36     0.0087197282881530
  37    -0.0093472919495694
  38     0.0000408404834372
  39     0.2618094953361721
  40     0.1222863082611527
  41     0.0087195953737646
  42     0.0093471510220717
  43    -0.0000022960918731
  44    -0.2618097368875845
  45    -0.1222864493915604
  46    -0.0087195870251796
  47     0.0093471730459650
  48     0.0000021528068049
 Ene=   -0.382028
 Spin=  Alpha
 Occup=    2.000000
   1     0.0002341574826572
   2    -0.0005266553070345
   3    -0.0004686631977064
   4    -0.0004956672474515
   5     0.0008314578973478
   6     0.3856470706319976
   7    -0.0003549357993293
   8     0.0005301207087390
   9     0.2926191680309325
  10     0.0000265556039606
  11    -0.0286436419423260
  12     0.0000001974252098
  13     0.0000096486351513
  14     0.0000751530209821
  15    -0.0000922123111550
  16     0.0002190070179216
  17    -0.0000464011057539
  18     0.0004637222142721
  19    -0.0008520729810510
  20     0.3856467339483692
  21     0.0001823258164321
  22    -0.0005457615852268
  23     0.2926189413212525
  24    -0.0000248008670783
  25     0.0286435584356567
  26    -0.0000000085744997
  27     0.0000173635607125
  28     0.0000736220847643
  29     0.0005594254354844
  30     0.0003040143111911
  31    -0.0000378031566052
  32    -0.0000151074467568
  33     0.0106639838768939
  34    -0.0004848605135328
  35    -0.0004293321607084
  36    -0.0000269735630922
  37     0.0000121608618609
  38     0.0106640529332532
  39     0.0004554524112778
  40     0.0003195041508252
  41     0.0000154382313735
  42    -0.0000038346816072
  43     0.0106640600703535
  44    -0.0005888304257360
  45    -0.0004138407461162
  46     0.0000046089388335
  47     0.0000056405223016
  48     0.0106640732853417
 Ene=    0.171301
 Spin=  Alpha
 Occup=    0.000000
   1     0.0004043828965765
   2    -0.0005822694305084
   3    -0.0053719192603453
   4    -0.0006723822298200
   5     0.0005706288149094
   6     0.3422156850283360
   7    -0.0021460552780801
   8     0.0014010251547502
   9     0.7750437186424108
  10    -0.0000198905740698
  11     0.0216141576732887
  12    -0.0000000750037831
  13    -0.0000144475449801
  14    -0.0000583416296249
  15    -0.0000273772692774
  16     0.0000934387737861
  17    -0.0014791006854977
  18     0.0001644337468810
  19     0.0005889198401200
  20    -0.3422179363552439
  21     0.0001046264406443
  22     0.0014424669289875
  23    -0.7750498637544807
  24    -0.0000195940349594
  25     0.0216140591215191
  26    -0.0000001055954658
  27    -0.0000082306727238
  28     0.0000571861732730
  29     0.0002735968836861
  30     0.0018342848375621
  31    -0.0000240377907799
  32     0.0000023990397749
  33     0.0173811462205224
  34     0.0009151790317610
  35     0.0046048720873980
  36     0.0000026630567131
  37     0.0000541500847245
  38     0.0173810012030778
  39     0.0003468564700915
  40     0.0020009328540657
  41    -0.0000045803546301
  42     0.0000238438449395
  43    -0.0173812018331981
  44    -0.0002947232832745
  45    -0.0007696425892686
  46     0.0000221201552086
  47     0.0000345638516373
  48    -0.0173813206617065
 Ene=    0.204893
 Spin=  Alpha
 Occup=    0.000000
   1    -0.0731934065487929
   2     0.1160516828730778
   3     1.5908727585064681
   4     0.1300946884218775
   5     0.0000008170026046
   6     0.0008850229350717
   7     0.5448932934106607
   8     0.0000064310085108
   9     0.0035746206859777
  10    -0.0026083405519090
  11     0.0000580258444647
  12    -0.0000184460029968
  13     0.0045072537680636
  14    -0.0000000484783871
  15    -0.0731942371762864
  16     0.1160536592167427
  17     1.5908721623111817
  18    -0.1300956409978303
  19     0.0000015705854113
  20    -0.0004844457511076
  21    -0.5449036412972700
  22     0.0000018655719827
  23    -0.0018374360148533
  24    -0.0026084161766321
  25     0.0000506074410666
  26     0.0000184464068510
  27     0.0045073210388390
  28     0.0000001119744731
  29    -0.0060604747588281
  30    -1.1106790832572986
  31     0.0052086866469906
  32     0.0012848858689388
  33     0.0000143466013541
  34    -0.0060592151128061
  35    -1.1106666671969734
  36     0.0052086228817289
  37    -0.0012847832542656
  38     0.0000406880070080
  39    -0.0060603159596607
  40    -1.1106760919195120
  41    -0.0052086164160666
  42    -0.0012848451092444
  43    -0.0000360306311999
  44    -0.0060609099172922
  45    -1.1106821817786916
  46    -0.0052084981850467
  47     0.0012848996172992
  48    -0.0000095516636086
 Ene=    0.230422
 Spin=  Alpha
 Occup=    0.000000
   1    -0.0000004498669200
   2     0.0000005122028467
   3     0.0000096251618157
   4     0.0000003521320914
   5    -0.2151750955426190
   6     0.0006134486519219
   7    -0.0000013801311953
   8    -0.7761570894893973
   9     0.0025348792078387
  10    -0.0000000066756500
  11     0.0000366670859999
  12    -0.0000235112333661
  13     0.0000000389556180
  14     0.0105123656183212
  15     0.0000002644235392
  16     0.0000000160583032
  17    -0.0000123966537281
  18     0.0000003376274853
  19    -0.2151747946916443
  20    -0.0006249508252644
  21    -0.0000011948576155
  22    -0.7761682783837970
  23    -0.0025763752465024
  24    -0.0000000617680618
  25     0.0000361053359402
  26     0.0000282208109277
  27     0.0000000327304191
  28    -0.0105122807837836
  29     0.0228443185182270
  30     1.1730825792736226
  31    -0.0031831039921092
  32    -0.0055478686526774
  33     0.0000185726698442
  34    -0.0228433529579926
  35    -1.1730939284518316
  36     0.0031831962296283
  37    -0.0055477894064935
  38     0.0000359142065029
  39    -0.0228435258997657
  40    -1.1730942053656372
  41    -0.0031832407343046
  42    -0.0055478971580808
  43    -0.0000416517543882
  44     0.0228443978163284
  45     1.1731034491048511
  46     0.0031832694255804
  47    -0.0055478881938524
  48    -0.0000134293207226
 Ene=    0.245380
 Spin=  Alpha
 Occup=    0.000000
   1    -0.0916289795011308
   2     0.1166621883247756
   3     2.3777620855889547
   4     0.0889649700810512
   5     0.0000009565987073
   6     0.0007645524447538
   7     0.1647952834163170
   8     0.0000042518227410
   9     0.0033949583153310
  10    -0.0049414263332924
  11     0.0000329912955255
  12     0.0000042866605034
  13    -0.0081169133689903
  14    -0.0000000844132066
  15     0.0916291084739561
  16    -0.1166625448422996
  17    -2.3777685992441526
  18     0.0889656631339970
  19     0.0000025153097364
  20    -0.0002740463986888
  21     0.1647967028145686
  22     0.0000097400783542
  23    -0.0014893709454057
  24     0.0049413341381025
  25     0.0000461305252447
  26     0.0000033947831795
  27     0.0081168809930064
  28     0.0000000532481709
  29     0.0010215120152165
  30    -1.2941068393040516
  31     0.0005594570866752
  32     0.0059372231662374
  33     0.0000205905380676
  34     0.0010216438436648
  35    -1.2940930370441348
  36     0.0005594431004631
  37    -0.0059371245829713
  38     0.0000005305742848
  39    -0.0010205569163821
  40     1.2941142031686890
  41     0.0005594759671046
  42     0.0059371950584161
  43    -0.0000249836165925
  44    -0.0010208903014624
  45     1.2940894542903416
  46     0.0005594378779747
  47    -0.0059370622110952
  48    -0.0000055590186435
 Ene=    0.304638
 Spin=  Alpha
 Occup=    0.000000
   1     0.0000004742866059
   2    -0.0000012462274235
   3    -0.0000193573628700
   4    -0.0000001957774702
   5    -0.1890020030964626
   6     0.0003420627622429
   7    -0.0000026832685009
   8    -1.6667948984206973
   9     0.0011040901495299
  10     0.0000002745923144
  11    -0.0000015601128936
  12    -0.0000638897302450
  13     0.0000002380491702
  14    -0.0194613956317407
  15    -0.0000004610516194
  16     0.0000010916929220
  17     0.0000079101939609
  18    -0.0000002535762600
  19     0.1890010077690968
  20     0.0003521615088172
  21     0.0000006233885640
  22     1.6667959797401788
  23     0.0011932084770160
  24    -0.0000000891639165
  25     0.0000005194486944
  26     0.0000435217628833
  27    -0.0000000820714623
  28    -0.0194618548441902
  29    -0.0254687043059965
  30     1.6924511610046642
  31    -0.0127516906380325
  32    -0.0097987700389225
  33    -0.0000079938365087
  34     0.0254672541322487
  35    -1.6924288879792864
  36     0.0127517086033192
  37    -0.0097985031645228
  38     0.0000398496749227
  39    -0.0254686802439428
  40     1.6924380657805600
  41     0.0127518678535273
  42     0.0097985881977610
  43    -0.0000145259335172
  44     0.0254701506187678
  45    -1.6924482119871092
  46    -0.0127517505074044
  47     0.0097987123667730
  48     0.0000474283945170
 Ene=    0.487092
 Spin=  Alpha
 Occup=    0.000000
   1     0.0526764783469094
   2    -0.0848659248164850
   3    -5.5443501996926354
   4     0.1408372094819061
   5     0.0000008270978920
   6     0.0003855325564625
   7     3.6109023055963911
   8     0.0000030082596597
   9    -0.0004490940139464
  10     0.0079936192692386
  11    -0.0000126784353112
  12     0.0000596440706074
  13     0.0232217983911622
  14     0.0000001226238445
  15    -0.0526767295040236
  16     0.0848681034490362
  17     5.5443397211234986
  18     0.1408359739499580
  19    -0.0000002941220641
  20     0.0000359597838921
  21     3.6109077537083474
  22    -0.0000010550694051
  23    -0.0020201264024046
  24    -0.0079939934920191
  25     0.0000560607618452
  26     0.0000616262177725
  27    -0.0232221775767863
  28     0.0000001154623476
  29    -0.1378639480364582
  30    -0.1914982112964025
  31     0.0029462379284382
  32    -0.0078899009270608
  33     0.0000507614621445
  34    -0.1378663366124775
  35    -0.1914859241378296
  36     0.0029463904549313
  37     0.0078899268642174
  38     0.0000228896929810
  39     0.1378682013635345
  40     0.1914922452494843
  41     0.0029464034432167
  42    -0.0078899808029356
  43    -0.0000241754561750
  44     0.1378672484205361
  45     0.1914977788499269
  46     0.0029464629135599
  47     0.0078899570273887
  48     0.0000045392044975
 Ene=    0.561535
 Spin=  Alpha
 Occup=    0.000000
   1     0.0729671463536239
   2    -0.6375546376877157
   3     0.3486883653488054
   4     0.3920875297962471
   5    -0.0000000761546767
   6     0.0000452062541852
   7    -0.8992854028483868
   8    -0.0000012246920180
   9    -0.0003554492130425
  10     0.0167061250904258
  11     0.0000007213770436
  12    -0.0000045664132536
  13    -0.0406205322877194
  14    -0.0000002584744364
  15     0.0729673046783098
  16    -0.6375548776448062
  17     0.3486731199073614
  18    -0.3920881471713061
  19    -0.0000002078242876
  20     0.0001263637409379
  21     0.8992780000286119
  22     0.0000010319579261
  23     0.0000566115721369
  24     0.0167062202359967
  25     0.0000265802862854
  26     0.0000051896794851
  27    -0.0406203361494030
  28     0.0000000471664280
  29     0.1423316999825284
  30    -0.1321224631168761
  31    -0.0283552524599132
  32     0.0040641654436052
  33    -0.0000104803777151
  34     0.1423337064943892
  35    -0.1321271639220998
  36    -0.0283551911377414
  37    -0.0040643310780935
  38     0.0000029719301043
  39     0.1423329667607899
  40    -0.1321237317401944
  41     0.0283551813503541
  42    -0.0040641134333350
  43    -0.0000191600144553
  44     0.1423318742958439
  45    -0.1321236603105626
  46     0.0283553210362765
  47     0.0040641550068297
  48    -0.0000052737172120
 Ene=    0.605418
 Spin=  Alpha
 Occup=    0.000000
   1    -0.0972435678992176
   2     0.8250204271846988
   3    -1.8604531547031251
   4     0.0476519552958447
   5     0.0000020166008860
   6    -0.0009842187739502
   7    -0.5442752273561459
   8    -0.0000210675928264
   9    -0.0020084420601979
  10    -0.0624138194313739
  11     0.0001026633056037
  12    -0.0000843185927483
  13    -0.0261243801049217
  14     0.0000020395860219
  15    -0.0972431430556003
  16     0.8250297423194235
  17    -1.8605686176157630
  18    -0.0476555615063804
  19     0.0000017845241988
  20    -0.0004277292548120
  21     0.5442428657683948
  22    -0.0000079014928891
  23     0.0014840602755601
  24    -0.0624147670211689
  25    -0.0001720460418358
  26     0.0000915069647520
  27    -0.0261247451014523
  28    -0.0000021870570855
  29     0.4410316994200896
  30     0.4321605767702761
  31    -0.0060831722273255
  32     0.0098868693619430
  33    -0.0001816287433062
  34     0.4410085512831133
  35     0.4321527661158495
  36    -0.0060854325878361
  37    -0.0098871486864187
  38    -0.0002084320187521
  39     0.4410177978334856
  40     0.4321687592292540
  41     0.0060858743540796
  42    -0.0098875099265662
  43     0.0000461518127010
  44     0.4410429708024174
  45     0.4321566514247873
  46     0.0060832495496749
  47     0.0098873719593430
  48     0.0000204141753683
 Ene=    0.640558
 Spin=  Alpha
 Occup=    0.000000
   1     0.0000022023243564
   2    -0.0000172325608510
   3     0.0000275868662026
   4     0.0000001387706711
   5     0.0549444396843954
   6     0.0001588385543582
   7     0.0000065245419075
   8    -0.5681951365468824
   9     0.0017711725626985
  10     0.0000007987076635
  11    -0.0000192585231242
  12     0.0003153101350599
  13     0.0000002258165558
  14     0.1055759295661699
  15     0.0000021666506186
  16    -0.0000209166260013
  17     0.0000508321287847
  18     0.0000008543910606
  19     0.0549423995733960
  20    -0.0001558566971603
  21    -0.0000129057177352
  22    -0.5681884527649669
  23    -0.0018015629146326
  24     0.0000016974228377
  25    -0.0000248958291325
  26     0.0000850946267437
  27     0.0000006980604485
  28    -0.1055757338465460
  29     0.5727996169112134
  30    -0.0979949215325891
  31     0.0605051765957128
  32    -0.0019364004521066
  33     0.0001785755349470
  34    -0.5728170496445000
  35     0.0979858830338175
  36    -0.0605046472659001
  37    -0.0019365861464803
  38    -0.0000608893019045
  39    -0.5728140851510478
  40     0.0979706129837696
  41     0.0605054965196996
  42    -0.0019358594570130
  43    -0.0000886449293102
  44     0.5727907670598258
  45    -0.0979953842630046
  46    -0.0605055200461506
  47    -0.0019367198389524
  48    -0.0000292403149262
 Ene=    0.699710
 Spin=  Alpha
 Occup=    0.000000
   1     0.0004204740016148
   2    -0.0028968175060221
   3     0.0143714933822097
   4    -0.0009962230676117
   5     0.0009236505806589
   6     0.6964364588700619
   7    -0.0045626090103023
   8    -0.0014171329362455
   9    -0.6148272956452537
  10    -0.0000242062248402
  11    -0.0648238677415598
  12     0.0000001933912550
  13    -0.0000589644054243
  14     0.0000496189279177
  15    -0.0003045017919207
  16     0.0033302442712972
  17    -0.0179791952701652
  18    -0.0000108169455725
  19    -0.0009608781552792
  20     0.6964376651763056
  21    -0.0040956350034801
  22     0.0014500047666259
  23    -0.6148303543875345
  24    -0.0002360892534192
  25     0.0648236514060016
  26     0.0000005166855115
  27    -0.0000457036301062
  28     0.0000461575550954
  29     0.0003041775607267
  30    -0.0009781901142804
  31    -0.0000982318341727
  32     0.0000193059650823
  33     0.0133873149214731
  34    -0.0001354392978060
  35    -0.0000325803770679
  36    -0.0000046226822678
  37     0.0000500515431834
  38     0.0133863531207269
  39     0.0017559380282713
  40     0.0011549647263817
  41     0.0001188714760911
  42    -0.0000789250457560
  43     0.0133872078571256
  44     0.0013163063536433
  45     0.0021005789515616
  46     0.0000252694887528
  47     0.0000081302532940
  48     0.0133873376745663
 Ene=    0.747511
 Spin=  Alpha
 Occup=    0.000000
   1    -0.0190055932577621
   2     0.6493755086802415
   3    -5.3509569453751453
   4     0.1573513979467293
   5    -0.0000008570213084
   6     0.0012778747782190
   7     1.2299137921352037
   8     0.0000041178552128
   9    -0.0047319968258802
  10    -0.0619943900372899
  11    -0.0000236449071961
  12    -0.0002637494556079
  13    -0.0241989258892618
  14     0.0000001618547508
  15     0.0190029784075277
  16    -0.6493515658540340
  17     5.3509026001222173
  18     0.1573505142417361
  19    -0.0000010833392452
  20     0.0018039298719925
  21     1.2299281098243606
  22    -0.0000033887282693
  23    -0.0009946683208125
  24     0.0619928589179330
  25     0.0000610886066268
  26    -0.0002707809860039
  27     0.0241982210981848
  28     0.0000000048325746
  29     0.5516358367834218
  30     0.3991401930176915
  31    -0.0103310511588280
  32     0.0306472588818993
  33    -0.0002415097854179
  34     0.5516451930374178
  35     0.3991353783306996
  36    -0.0103321302532499
  37    -0.0306463477496727
  38    -0.0000811277622135
  39    -0.5516283064077054
  40    -0.3991244018827393
  41    -0.0103311157404285
  42     0.0306466846323520
  43     0.0001819514976427
  44    -0.5516273456634710
  45    -0.3991208233297714
  46    -0.0103308493272931
  47    -0.0306470879710505
  48     0.0000182895556547
 Ene=    0.821584
 Spin=  Alpha
 Occup=    0.000000
   1     0.0008311304284427
   2    -0.0042324919672172
   3     0.0075997216247950
   4    -0.0013433332640155
   5     0.0012210451391848
   6     0.7835864354555558
   7     0.0010543337372274
   8    -0.0015013238590739
   9    -1.1030936168255783
  10    -0.0003089411588471