[Molden Format]
[Atoms] Angs
 c       1                    6  1.079222000000e-02  8.027695000000e-02 -4.318047100000e-01
 c       2                    6 -4.030706000000e-01 -8.212021000000e-02  9.517939900000e-01
 h       3                    1  1.090585400000e+00 -1.705349800000e-01 -5.294741200000e-01
 h       4                    1 -1.121989200000e-01  1.119241800000e+00 -8.026553000000e-01
 h       5                    1 -5.373194200000e-01 -5.865768200000e-01 -1.129486040000e+00
 h       6                    1 -4.878867000000e-02 -3.592867400000e-01  1.942626170000e+00
[GTO]
1
 s           5
      1.238401693800e+03      5.517365048110e-03
      1.862900499200e+02      4.108882855595e-02
      4.225117634600e+01      1.822538212649e-01
      1.167655793200e+01      4.682845943743e-01
      3.593050648200e+00      4.457581733600e-01
 s           1
      4.024514736300e-01      1.000000000000e+00
 s           1
      1.309018266800e-01      1.000000000000e+00
 p           3
      9.468097062100e+00      5.688833201104e-02
      2.010354514200e+00      3.129405933647e-01
      5.477100470700e-01      7.606501650914e-01
 p           1
      1.526861379500e-01      1.000000000000e+00
 d           1
      8.000000000000e-01      1.000000000000e+00

2
 s           5
      1.238401693800e+03      5.517365048110e-03
      1.862900499200e+02      4.108882855595e-02
      4.225117634600e+01      1.822538212649e-01
      1.167655793200e+01      4.682845943743e-01
      3.593050648200e+00      4.457581733600e-01
 s           1
      4.024514736300e-01      1.000000000000e+00
 s           1
      1.309018266800e-01      1.000000000000e+00
 p           3
      9.468097062100e+00      5.688833201104e-02
      2.010354514200e+00      3.129405933647e-01
      5.477100470700e-01      7.606501650914e-01
 p           1
      1.526861379500e-01      1.000000000000e+00
 d           1
      8.000000000000e-01      1.000000000000e+00

3
 s           3
      1.301070100000e+01      3.348548481299e-02
      1.962257200000e+00      2.347218708812e-01
      4.445379600000e-01      8.137702852596e-01
 s           1
      1.219496200000e-01      1.000000000000e+00
 p           1
      8.000000000000e-01      1.000000000000e+00

4
 s           3
      1.301070100000e+01      3.348548481299e-02
      1.962257200000e+00      2.347218708812e-01
      4.445379600000e-01      8.137702852596e-01
 s           1
      1.219496200000e-01      1.000000000000e+00
 p           1
      8.000000000000e-01      1.000000000000e+00

5
 s           3
      1.301070100000e+01      3.348548481299e-02
      1.962257200000e+00      2.347218708812e-01
      4.445379600000e-01      8.137702852596e-01
 s           1
      1.219496200000e-01      1.000000000000e+00
 p           1
      8.000000000000e-01      1.000000000000e+00

6
 s           3
      1.301070100000e+01      3.348548481299e-02
      1.962257200000e+00      2.347218708812e-01
      4.445379600000e-01      8.137702852596e-01
 s           1
      1.219496200000e-01      1.000000000000e+00
 p           1
      8.000000000000e-01      1.000000000000e+00


[5D]
[7F]
[9G]
[MO]
 Ene=  -11.249855
 Spin=  Alpha
 Occup=    2.000000
   1     0.9892265255078861
   2     0.0379094219207622
   3    -0.0334581330538076
   4     0.0001250015443056
   5     0.0000176137545358
   6    -0.0002583470911685
   7     0.0002058723339033
   8     0.0003318987135835
   9    -0.0019812432658978
  10    -0.0000483964102620
  11     0.0001043722945947
  12     0.0000032441712744
  13    -0.0000674334358719
  14     0.0000140563646448
  15     0.0525756677149621
  16     0.0002131785023142
  17     0.0089103589811547
  18    -0.0003478499732684
  19    -0.0001188971768230
  20     0.0010702405540655
  21     0.0011617639818075
  22     0.0003057799642547
  23    -0.0030986855884669
  24    -0.0007226831895862
  25     0.0004290511670380
  26     0.0001407363032568
  27    -0.0000277100308614
  28    -0.0000656953285208
  29    -0.0011329391765657
  30     0.0059126866141733
  31     0.0011399818522643
  32    -0.0002875868925244
  33     0.0000160809802111
  34    -0.0013373344403505
  35     0.0057462403268977
  36    -0.0001687096025151
  37     0.0011829093301494
  38    -0.0002390477884486
  39    -0.0013363077327339
  40     0.0057481813967619
  41    -0.0006651486630076
  42    -0.0008097422409417
  43    -0.0006205499602807
  44    -0.0000999973044369
  45    -0.0005220994222711
  46    -0.0001633206173224
  47     0.0000388517845594
  48     0.0000080831297287
 Ene=  -11.242973
 Spin=  Alpha
 Occup=    2.000000
   1     0.0521712513413041
   2     0.0037408841723228
   3    -0.0035665431404251
   4    -0.0005296214649254
   5    -0.0001698969380380
   6     0.0015718415385745
   7    -0.0002030779634629
   8     0.0003586958332610
   9    -0.0016200016895622
  10     0.0008267399559371
  11    -0.0006025646891286
  12    -0.0001497979937349
  13     0.0001138275475414
  14     0.0000553753301611
  15    -0.9898390802551206
  16    -0.0329962064143898
  17     0.0171700057881500
  18    -0.0014975999732995
  19     0.0004309145739738
  20    -0.0003160549687507
  21     0.0020186078191849
  22    -0.0004244646455830
  23    -0.0003892285784684
  24    -0.0020946680415751
  25    -0.0001923658328964
  26     0.0008199283489543
  27    -0.0002056440364521
  28     0.0001888871607648
  29    -0.0002528323874193
  30    -0.0003719904239462
  31     0.0003101026967091
  32    -0.0000195277589710
  33    -0.0002999729834989
  34    -0.0002410746171148
  35    -0.0007259241609090
  36     0.0000941138142181
  37     0.0002534804450360
  38    -0.0003301865753621
  39    -0.0002416356771102
  40    -0.0007281930389123
  41    -0.0000028471506277
  42    -0.0001350324730008
  43    -0.0004049207547384
  44     0.0031119519854629
  45    -0.0050278040507546
  46    -0.0008824126589259
  47     0.0004940499481101
  48    -0.0014419658635382
 Ene=   -1.003297
 Spin=  Alpha
 Occup=    2.000000
   1    -0.2237526678833298
   2     0.4375391753322516
   3     0.1050027882035930
   4    -0.0148964685306770
   5    -0.0091251463431754
   6     0.0667188907183194
   7     0.0043305704404879
   8    -0.0028533500298524
   9     0.0093626355395974
  10     0.0096916279485353
  11    -0.0042034594960515
  12    -0.0022246461869714
  13     0.0000198407751339
  14     0.0007325150968519
  15    -0.1505571033157007
  16     0.3029988125470605
  17     0.1151943234148228
  18     0.0461668636534661
  19     0.0097378485367787
  20    -0.1105728093918176
  21     0.0078809246527210
  22     0.0053703659001068
  23    -0.0382624201004152
  24     0.0167227943519003
  25    -0.0087036617330977
  26    -0.0038881267745456
  27     0.0019980783303140
  28     0.0005246525140998
  29     0.1400633258325296
  30     0.0179005546012340
  31    -0.0184783877688615
  32     0.0041734262693581
  33     0.0022744771359566
  34     0.1372369795785398
  35     0.0200272279015166
  36     0.0017942497577066
  37    -0.0174490504231959
  38     0.0067120681962609
  39     0.1372875388519939
  40     0.0200406263901639
  41     0.0089282830420037
  42     0.0111564870614747
  43     0.0121977816927799
  44     0.0686571961451283
  45     0.0110164962121893
  46    -0.0017950791284555
  47     0.0019704181404036
  48    -0.0079781091397537
 Ene=   -0.771645
 Spin=  Alpha
 Occup=    2.000000
   1    -0.0976787130616353
   2     0.1917801371288709
   3     0.1217046949236759
   4     0.0316938673031479
   5     0.0260294046102801
   6    -0.1772480934402529
   7     0.0067489487265169
   8     0.0076670080158039
   9    -0.0488542335537435
  10    -0.0126902423162251
  11     0.0056285130174120
  12     0.0032371874229860
  13    -0.0016300021976758
  14    -0.0001196722060405
  15     0.2006500897013840
  16    -0.4110396573404143
  17    -0.2251991085795116
  18    -0.0522034062138754
  19     0.0356126804313530
  20    -0.1187090026238183
  21    -0.0161343192763289
  22     0.0080396460455029
  23    -0.0211753224110032
  24    -0.0083866982987182
  25    -0.0057207657487904
  26     0.0048496153298819
  27    -0.0018922954370304
  28     0.0024067088824301
  29     0.1115950686911099
  30     0.0241661791066421
  31    -0.0108693405188562
  32     0.0032813334269506
  33    -0.0029707740971411
  34     0.1377890538402617
  35     0.0281198868933730
  36     0.0025217743325877
  37    -0.0133460314027240
  38     0.0010029022977568
  39     0.1378352134661332
  40     0.0281199116147421
  41     0.0082065618344087
  42     0.0094520607702294
  43     0.0053719777529097
  44    -0.2843680760703154
  45    -0.0604068829828440
  46     0.0073328119200564
  47    -0.0063573655010222
  48     0.0237517298305098
 Ene=   -0.586855
 Spin=  Alpha
 Occup=    2.000000
   1     0.0013658798155013
   2    -0.0139977695003051
   3    -0.0159170623143268
   4     0.2727782695196234
   5    -0.0165696047861889
   6    -0.2661821888796496
   7     0.1191894456342716
   8    -0.0062114493864346
   9    -0.1215610050554194
  10    -0.0189585316085437
  11     0.0106965844852463
  12     0.0022033479524697
  13     0.0064517442268228
  14    -0.0055275329220464
  15     0.0349901850939292
  16    -0.0917607489654564
  17     0.0095817669980278
  18     0.0344264014134600
  19    -0.0770981503016379
  20     0.3583634017501118
  21     0.0197973873351252
  22    -0.0262493527836881
  23     0.1115353903748419
  24    -0.0085577477898822
  25     0.0104754448007005
  26    -0.0004713392678670
  27     0.0027681565555507
  28    -0.0036238118778563
  29     0.2586209483714409
  30     0.1020269926819999
  31    -0.0150105619771687
  32     0.0043791946550621
  33    -0.0032480360061057
  34     0.0341930686599397
  35     0.0103568563347145
  36     0.0069158742148467
  37    -0.0036973036563039
  38    -0.0040304845690204
  39     0.0336441289529615
  40     0.0101719403495216
  41     0.0081454978485075
  42     0.0012899892503688
  43    -0.0031018556796904
  44     0.2445857817415299
  45     0.0766377002111235
  46    -0.0056024620605889
  47     0.0040828702725194
  48    -0.0140989744294413
 Ene=   -0.569585
 Spin=  Alpha
 Occup=    2.000000
   1    -0.0000186484493083
   2     0.0000321551554915
   3     0.0000174388821400
   4     0.0998219491560372
   5     0.4083995940380771
   6     0.0770997070043371
   7     0.0496952487611872
   8     0.2032057297610407
   9     0.0384000027363696
  10    -0.0042045307901457
  11    -0.0057342547055275
  12    -0.0115325843459310
  13    -0.0093160307679654
  14    -0.0121279010989214
  15    -0.0000375680219040
  16     0.0000589957765025
  17     0.0001392076183856
  18     0.0195626832158167
  19     0.0800100509999991
  20     0.0159502359301967
  21     0.0055799504601698
  22     0.0226702692275307
  23     0.0045411276633171
  24    -0.0045727054253295
  25    -0.0026666507528828
  26    -0.0135165864150487
  27    -0.0008898989769770
  28     0.0040495824859751
  29    -0.0016968307165621
  30    -0.0006475735617581
  31     0.0024966070329182
  32     0.0096281191474112
  33     0.0018119419417665
  34     0.3093706060931984
  35     0.1107548220281811
  36     0.0055275133156801
  37    -0.0139379997077579
  38     0.0106066161942527
  39    -0.3072058776801735
  40    -0.1099260254766138
  41    -0.0103068287126501
  42    -0.0050841157285933
  43    -0.0142099172909418
  44     0.0005202042045866
  45     0.0001917378268225
  46     0.0004383068785101
  47     0.0018307757518461
  48     0.0003234987104833
 Ene=   -0.561897
 Spin=  Alpha
 Occup=    2.000000
   1    -0.0041699659205275
   2     0.0122572623542995
   3     0.0137747035928936
   4     0.3050921052541974
   5    -0.1225062226733832
   6     0.2545337781339206
   7     0.1494387292499611
   8    -0.0591413544298845
   9     0.1202747080558933
  10     0.0042070842047579
  11    -0.0089171461549231
  12    -0.0032547197852555
  13     0.0181788186892107
  14    -0.0081097797763224
  15     0.0066634348342148
  16    -0.0082616495168213
  17    -0.0298931495834785
  18     0.0693285766943862
  19     0.0181311771361878
  20    -0.1826127798972641
  21     0.0097017969871646
  22     0.0088706959687367
  23    -0.0583914244482709
  24    -0.0038925297095556
  25    -0.0188780948233380
  26     0.0049012954434300
  27     0.0063258576421163
  28     0.0007639186966759
  29     0.2786971047320807
  30     0.1118399162441867
  31    -0.0142536683644795
  32     0.0021216383246404
  33     0.0078039784900934
  34    -0.2090352908339563
  35    -0.0799757459056661
  36     0.0059462336159389
  37     0.0132630777215829
  38    -0.0001702596371602
  39    -0.2122868916970049
  40    -0.0811919351931838
  41    -0.0008348479217681
  42    -0.0135674310571173
  43    -0.0054467683498028
  44    -0.1466860190172476
  45    -0.0573403035161477
  46     0.0036443675494514
  47    -0.0021395268047139
  48     0.0065186127798504
 Ene=    0.000000
 Spin=  Alpha
 Occup=    1.332859
   1    -0.0253242224959264
   2     0.0640964841078597
   3    -0.0114031737397579
   4    -0.0784220632259414
   5     0.0045832512050128
   6     0.0774130179413090
   7    -0.0625881662620827
   8     0.0133221330562872
   9     0.0113387294162173
  10     0.0149416234181021
  11     0.0193371764699868
  12    -0.0069997998020859
  13    -0.0146746354602206
  14     0.0034927523234920
  15     0.0694604930721801
  16    -0.1515583776412257
  17    -0.2346255521778428
  18     0.5488980357913931
  19    -0.1268703791226568
  20    -0.0460970676577760
  21     0.4847733752022400
  22    -0.1073200961973605
  23    -0.0654528525303308
  24     0.0027043731539840
  25    -0.0017372946443194
  26    -0.0015520398481579
  27     0.0048305814764756
  28    -0.0022604566351430
  29    -0.1390580281224711
  30    -0.1419321461203502
  31     0.0027740424425450
  32    -0.0015977770500406
  33     0.0046817144553062
  34     0.0518613321057883
  35     0.0422131194377705
  36    -0.0026750372481679
  37    -0.0013966131104985
  38     0.0007415967720279
  39     0.0523244800343753
  40     0.0426847871028249
  41    -0.0017907408331324
  42     0.0021061951508863
  43     0.0014143279170568
  44     0.1163648187707712
  45     0.0914485923449382
  46     0.0175162322118750
  47    -0.0023827991167966
  48    -0.0101757469552530
 Ene=    0.000000
 Spin=  Alpha
 Occup=    0.667141
   1     0.0000094853851317
   2    -0.0000165282359873
   3    -0.0000748125749899
   4     0.0121908902090443
   5     0.0492781341314274
   6     0.0094445780209467
   7     0.0126849665066501
   8     0.0514072185028117
   9     0.0098352122256673
  10    -0.0106102900983019
  11    -0.0076498573385200
  12    -0.0309264617165825
  13    -0.0054408207285198
  14     0.0029217472009083
  15    -0.0000150804278254
  16     0.0000335739087234
  17     0.0000925786707945
  18    -0.1418220410609828
  19    -0.5737540955427374
  20    -0.1098175118453169
  21    -0.1299186645298011
  22    -0.5256679760543871
  23    -0.1005998250812690
  24     0.0003250246889620
  25    -0.0021349648910689
  26     0.0015446197401278
  27    -0.0059598793252215
  28    -0.0117051401854098
  29    -0.0002893687389743
  30    -0.0002457426620512
  31     0.0006347748770978
  32     0.0025149390355554
  33     0.0004925877455664
  34     0.1258498758779006
  35     0.1301494191812748
  36     0.0024185851393305
  37    -0.0027692723572546
  38    -0.0005038004333485
  39    -0.1255848818548536
  40    -0.1298900996262733
  41    -0.0034502698435771
  42    -0.0013449545738247
  43    -0.0002838024140952
  44    -0.0000225610500662
  45    -0.0000467641355466
  46    -0.0058280872782161
  47    -0.0235763042232681
  48    -0.0045114976026664
 Ene=    0.189236
 Spin=  Alpha
 Occup=    0.000000
   1     0.1187268424267686
   2    -0.0746197277164669
   3    -3.4374515374288026
   4    -0.0324902625378311
   5    -0.0106257680242582
   6     0.0974641571816663
   7    -0.0652850033175711
   8    -0.0319558719514959
   9     0.2532715306320830
  10     0.0001433942324321
  11     0.0011492250803968
  12    -0.0002079489061115
  13    -0.0006448568953465
  14     0.0000994845877774
  15     0.0041866932359066
  16    -0.0705136858368057
  17     0.6520752077037089
  18     0.0245734185392570
  19     0.0004227987795139
  20    -0.0337649536441473
  21     0.1325468739042093
  22     0.0496094105052369
  23    -0.4300632282408633
  24    -0.0087923597511526
  25    -0.0000908175403436
  26     0.0029913537161787
  27     0.0003085264640198
  28     0.0000058111139996
  29    -0.0062057796273466
  30     1.2760630840004061
  31    -0.0054685261294743
  32     0.0009252405756622
  33     0.0022306578869984
  34     0.0138314742805813
  35     1.3536117302738460
  36     0.0000270527476968
  37    -0.0054889259633742
  38     0.0031363479144925
  39     0.0139095296957186
  40     1.3536860043544359
  41     0.0022517543472544
  42     0.0033897555389141
  43     0.0048367911262080
  44    -0.0585469822817529
  45     0.0840156873111944
  46     0.0014105176301601
  47     0.0001092160272612
  48    -0.0023924015827703
 Ene=    0.222215
 Spin=  Alpha
 Occup=    0.000000
   1     0.0264285132648466
   2    -0.0675535093881064
   3     0.1847374698517089
   4     0.1577038649224334
   5    -0.0310528537211730
   6    -0.0425764342419580
   7     0.4205301168695496
   8    -0.1127388465599512
   9     0.0405916028890324
  10     0.0084531629663951
  11     0.0051349742672117
  12    -0.0028536575805225
  13    -0.0063176746649939
  14     0.0021595562771846
  15    -0.0933005977542809
  16     0.1639372975798774
  17     1.4876379811702671
  18     0.0911471039041086
  19    -0.0486908774830388
  20     0.1367990956031776
  21     0.2884113181210454
  22    -0.2234424699769803
  23     0.7965078755921654
  24    -0.0079357892026078
  25     0.0019241937306697
  26     0.0021600260175440
  27     0.0003283640984493
  28    -0.0004410973586666
  29    -0.0446897733488594
  30    -0.8652538832448882
  31     0.0051172444570456
  32    -0.0006601305241919
  33    -0.0031996446585904
  34     0.0176277139356185
  35     0.3696501673938126
  36     0.0048545223933533
  37    -0.0001935846369219
  38    -0.0033400272326072
  39     0.0177068907337389
  40     0.3705010062452062
  41     0.0046853228655925
  42    -0.0008681757303010
  43    -0.0034816372757697
  44    -0.0450776195043994
  45    -2.0965195086353203
  46     0.0031581553610067
  47    -0.0019466857695224
  48     0.0061348254133477
 Ene=    0.261794
 Spin=  Alpha
 Occup=    0.000000
   1     0.0000045849317233
   2     0.0000630459247033
   3    -0.0009806145734348
   4     0.0730281407639172
   5     0.2950799510585339
   6     0.0563334692511206
   7     0.3371001016629672
   8     1.3629228133580678
   9     0.2600174571579434
  10    -0.0008790768158202
  11    -0.0006169925949647
  12    -0.0025953438466993
  13    -0.0004185487585024
  14     0.0003320315933276
  15    -0.0000583232697711
  16     0.0001079300399384
  17     0.0017925463433010
  18    -0.0017067135096301
  19    -0.0071461029823364
  20    -0.0012293129267791
  21    -0.0761097756791616
  22    -0.3096166339912632
  23    -0.0589278302870038
  24    -0.0031746719497030
  25    -0.0008969871650689
  26    -0.0095749279177979
  27     0.0019681594463182
  28     0.0075849745386136
  29    -0.0000407580399080
  30     0.0039982893145432
  31    -0.0003265438780855
  32    -0.0011796811119038
  33    -0.0002116957497131
  34    -0.0200252245983082
  35    -1.7743569868975984
  36    -0.0002820291859393
  37     0.0098180689806383
  38    -0.0074250922030157
  39     0.0200101119032791
  40     1.7709283987362290
  41     0.0040641503747902
  42     0.0053126148862829
  43     0.0103148927350606
  44    -0.0000184073747754
  45    -0.0017081399752948
  46    -0.0002470197059003
  47    -0.0010579387249664
  48    -0.0001993602341824
 Ene=    0.270221
 Spin=  Alpha
 Occup=    0.000000
   1     0.0134558875575523
   2    -0.0175004607423964
   3    -0.0920237017947043
   4    -0.2430090925855796
   5     0.0797465491894470
   6    -0.1030490268335556
   7    -1.2417821562741544
   8     0.3937586890926278
   9    -0.4544257912875815
  10     0.0050411552453828
  11     0.0034465643561838
  12    -0.0016873278856229
  13    -0.0043031349484811
  14     0.0014926586234468
  15    -0.0503025670997611
  16     0.1092410483923449
  17     0.9386764654790837
  18     0.0473902083016399
  19    -0.0249100014174289
  20     0.0691776700454463
  21     0.4782206780348196
  22    -0.2058421545940230
  23     0.4582777514943028
  24     0.0042706450442838
  25     0.0157009792111087
  26    -0.0065890624289545
  27     0.0040313951651302
  28    -0.0057029715410126
  29     0.0166309307930494
  30     1.8899517568748541
  31    -0.0123222757722940
  32     0.0022319905113223
  33     0.0043957416883094
  34    -0.0100372633859060
  35    -0.9081262801505614
  36     0.0020953283800801
  37     0.0063751256204274
  38    -0.0049692461890969
  39    -0.0102043490188235
  40    -0.9150104020463483
  41    -0.0006060205092774
  42    -0.0044748539568856
  43    -0.0070861261955791
  44     0.0381028493854503
  45    -1.3142385328113932
  46     0.0077269268293002
  47    -0.0031231864276406
  48     0.0062687599799255
 Ene=    0.418803
 Spin=  Alpha
 Occup=    0.000000
   1     0.0456020836135857
   2     0.0119352585208697
   3    -3.1345416584645234
   4     0.0524519098446995
   5     0.0239022275066962
   6    -0.1932684477606968
   7     0.8614682132818363
   8     0.2754799347705247
   9    -2.5541296252491916
  10     0.0288254588137512
  11    -0.0136460421302363
  12    -0.0059971179099362
  13    -0.0012694875375298
  14     0.0031723808751939
  15    -0.0935049991884891
  16     0.1724305537627969
  17     3.1812162842517795
  18     0.0415279311432828
  19     0.0350796546270741
  20    -0.2369575155779904
  21     0.6043480768711804
  22     0.3020961538521347
  23    -2.3593677226309646
  24    -0.0186296078217291
  25    -0.0099531735244206
  26     0.0088309563327921
  27     0.0011755733584094
  28     0.0018576053257005
  29    -0.1600215775234862
  30    -0.1707345073647894
  31    -0.0016845337614832
  32     0.0005340732102775
  33    -0.0006060315695877
  34    -0.0796362359137801
  35    -0.1675169909714865
  36     0.0029155763491964
  37    -0.0024892952860132
  38    -0.0064665140617337
  39    -0.0795413388079611
  40    -0.1673620029155538
  41     0.0042616417138057
  42     0.0029650973305280
  43    -0.0053910227244766
  44    -0.2068415974003737
  45     0.7901159272313319
  46     0.0058589535306623
  47     0.0017065030949674
  48    -0.0164647540669832
 Ene=    0.544866
 Spin=  Alpha
 Occup=    0.000000
   1    -0.0492885757021864
   2     0.3762673775774523
   3    -0.2941833584477981
   4    -0.0443517662272393
   5    -0.0630138541996430
   6     0.3875751487719347
   7    -0.0494868545009114
   8     0.0999757413475350
   9    -0.4602928094314017
  10     0.0293930895002308
  11    -0.0389209060898840
  12    -0.0059521854101920
  13     0.0273907823263889
  14    -0.0069528534741261
  15    -0.1269599516370093
  16     1.0495747888328446
  17    -1.4518995952516291
  18     0.0344347335680106
  19     0.0252006426699351
  20    -0.1759207878404733
  21    -0.2426595188491680
  22     0.0396204689338271
  23     0.1071840617670128
  24     0.0725200169615896
  25     0.0047943145636399
  26    -0.0271187571177481
  27     0.0036417979405369
  28    -0.0042784326485915
  29     0.1232657813161838
  30     0.1244032429703206
  31     0.0064380613531295
  32     0.0028579011154373
  33    -0.0232997572214799
  34    -0.2374333616675182
  35     0.3020561954338920
  36    -0.0013330725737822
  37     0.0016474675697148
  38    -0.0143776064705147
  39    -0.2386555654684077
  40     0.3029866984403898
  41    -0.0006765179427924
  42     0.0042594210723738
  43    -0.0137985794044990
  44     0.4812241064135375
  45     0.1490685457498578
  46    -0.0117625691473590
  47    -0.0044575631315916
  48     0.0385454524367844
 Ene=    0.639827
 Spin=  Alpha
 Occup=    0.000000
   1    -0.0332127506882723
   2     0.2098968818479107
   3     1.0679939143494215
   4    -0.2626764926577978
   5     0.0353062446570581
   6     0.1528019398747019
   7     0.9139998359943023
   8    -0.3554424466024249
   9     0.6897121544826041
  10     0.0414722107810434
  11     0.0059765441503092
  12     0.0016270651349656
  13    -0.0765114977645938
  14     0.0398594952394509
  15    -0.0449096902513432
  16     0.3794509285888960
  17    -1.2496306319537345
  18    -0.0250706307410574
  19     0.0344836970154621
  20    -0.1490989935239085
  21    -0.5446748639879224
  22    -0.0862762099778233
  23     1.1509958882994096
  24     0.0091621181700556
  25    -0.0448649671738227
  26     0.0102345627110307
  27    -0.0062614078730837
  28     0.0130778298405217
  29    -0.8013774818544183
  30     0.1943423113132210
  31    -0.0001083637583085
  32     0.0016277366732401
  33    -0.0072790535623242
  34     0.3306606845325545
  35    -0.0061242882438913
  36     0.0440828353919566
  37     0.0150982538719829
  38     0.0006823219131170
  39     0.3358755901266210
  40    -0.0068382087822658
  41     0.0319687786750289
  42    -0.0324706472364229
  43    -0.0084955024599459
  44    -0.2810333498457517
  45    -0.0373909534200755
  46    -0.0345890824088154
  47     0.0063726405581364
  48     0.0110303396515560
 Ene=    0.666742
 Spin=  Alpha
 Occup=    0.000000
   1    -0.0000728989720771
   2     0.0007444865847590
   3     0.0020779907447374
   4     0.0558026430436868
   5     0.2270649895427500
   6     0.0436260062030470
   7    -0.3477378404931739
   8    -1.4109193527636497
   9    -0.2674824408037568
  10    -0.0205892702348086
  11    -0.0294409297067151
  12    -0.0565899266408970
  13    -0.0485869126591607
  14    -0.0651633247203018
  15    -0.0000343548358701
  16     0.0002400075695953
  17    -0.0022222807671898
  18     0.0399432857404852
  19     0.1612650160635122
  20     0.0302953989166781
  21     0.0908906900108124
  22     0.3709301181922434
  23     0.0745244504954947
  24     0.0081309365135766
  25     0.0023696469188913
  26     0.0246725197916560
  27    -0.0046241439447872
  28    -0.0186752720448898
  29    -0.0027179098947621
  30     0.0002574873753827
  31    -0.0172730293751351
  32    -0.0692518227038713
  33    -0.0132416902435454
  34     0.7746572997484891
  35    -0.0021365676026228
  36    -0.0349422188239503
  37    -0.0038570943616839
  38    -0.0121696682087753
  39    -0.7711371007032497
  40     0.0021526428271251
  41     0.0284538790644589
  42    -0.0235570658209448
  43     0.0069388921448564
  44    -0.0010665690343606
  45    -0.0004404527842859
  46     0.0103089912967410
  47     0.0419868703898255
  48     0.0080553256631109
 Ene=    0.718717
 Spin=  Alpha
 Occup=    0.000000
   1    -0.0484522632850971
   2     0.2652057812138294
   3     0.0418412665190973
   4    -0.0656208213165682
   5    -0.0210493799419282
   6     0.1953286067101137
   7    -0.0196108133857826
   8     0.0975116650583413
   9    -0.4840719678815501
  10     0.0305996062353211
  11     0.0159397451391876
  12    -0.0170513103850797
  13     0.0099423884881975
  14    -0.0094530305354066
  15     0.1579125200924842
  16    -0.8656548388902560
  17     1.6200021555572488
  18     0.7409111908479662
  19    -0.1443927350846186
  20    -0.2035744402924924
  21    -0.6422424798548316
  22     0.0232760444072412
  23     0.7087330100163961
  24     0.0250149366120792
  25    -0.0224147728569813
  26    -0.0051018545318766
  27     0.0108343362441479
  28    -0.0014183848045062
  29    -0.0260036045688198
  30     0.1753115970527350
  31    -0.0038516681693922
  32     0.0033602707189610
  33    -0.0126118517539342
  34    -0.1978386431032526
  35    -0.1368748513934838
  36    -0.0205372476917412
  37    -0.0169564880949101
  38     0.0015569459409015
  39    -0.1977918016420958
  40    -0.1377416431553307
  41    -0.0106610339321320
  42     0.0226428303301682
  43     0.0091821565604915
  44    -0.0665790869712717
  45    -0.7924031874559629
  46     0.0205545179911185
  47    -0.0093867440329768
  48     0.0223687159047029
 Ene=    0.759381
 Spin=  Alpha
 Occup=    0.000000
   1    -0.0000606799882685
   2     0.0005014169941955
   3    -0.0019908429356199
   4    -0.0146722547547936
   5    -0.0595963156435764
   6    -0.0114157936958891
   7     0.0969357701019958
   8     0.3922611816931248
   9     0.0745942768323136
  10     0.0135152894935979
  11     0.0088761660791479
  12     0.0395739467292515
  13     0.0046940454773505
  14    -0.0079019844968830
  15     0.0000240813371524
  16    -0.0001749885347730
  17     0.0011881549590027
  18     0.2354139493564861
  19     0.9517481329454206
  20     0.1821093140721196
  21    -0.2974641363483846
  22    -1.2033312373763922
  23    -0.2308176985344915
  24    -0.0075214019808743
  25    -0.0032680282780438
  26    -0.0224982321738975
  27     0.0017440508484777
  28     0.0126236835280221
  29     0.0003077765138790
  30    -0.0000047931334613
  31    -0.0009986809858562
  32    -0.0038233944693498
  33    -0.0006586946397979
  34    -0.0927717148907617
  35     0.1524338803279865
  36     0.0092075439428848
  37     0.0008689713169257
  38    -0.0315197352504383
  39     0.0926588154951575
  40    -0.1518051294643971
  41    -0.0104701718359127
  42    -0.0060979439409748
  43     0.0304607181267643
  44     0.0000678233304120
  45    -0.0000591879380600
  46     0.0053959258882590
  47     0.0217948146645100
  48     0.0041752607325618
 Ene=    0.847253
 Spin=  Alpha
 Occup=    0.000000
   1     0.2434861854716408
   2    -1.4723322261155010
   3     4.3078342617165015
   4     0.0620826870337815
   5    -0.0136190590562006
   6    -0.0138830531792473
   7    -0.1313287156854037
   8    -0.0876807748820131
   9     0.6365245740649842
  10     0.0108718041933432