[Molden Format]
[Atoms] Angs
 c       1                    6  1.050140721887e-02  8.010079885654e-02 -4.305087913715e-01
 c       2                    6 -3.859426081295e-01 -8.445045235247e-02  9.417585799899e-01
 h       3                    1  1.091603521712e+00 -1.783936554735e-01 -4.826225914976e-01
 h       4                    1 -8.166846788024e-02  1.112192744037e+00 -8.184886349754e-01
 h       5                    1 -5.045873617892e-01 -5.899204397230e-01 -1.144643333870e+00
 h       6                    1 -2.140923765780e-01 -3.259970278651e-01  1.979202218633e+00
[GTO]
1
 s           5
      1.238401693800e+03      5.517365048110e-03
      1.862900499200e+02      4.108882855595e-02
      4.225117634600e+01      1.822538212649e-01
      1.167655793200e+01      4.682845943743e-01
      3.593050648200e+00      4.457581733600e-01
 s           1
      4.024514736300e-01      1.000000000000e+00
 s           1
      1.309018266800e-01      1.000000000000e+00
 p           3
      9.468097062100e+00      5.688833201104e-02
      2.010354514200e+00      3.129405933647e-01
      5.477100470700e-01      7.606501650914e-01
 p           1
      1.526861379500e-01      1.000000000000e+00
 d           1
      8.000000000000e-01      1.000000000000e+00

2
 s           5
      1.238401693800e+03      5.517365048110e-03
      1.862900499200e+02      4.108882855595e-02
      4.225117634600e+01      1.822538212649e-01
      1.167655793200e+01      4.682845943743e-01
      3.593050648200e+00      4.457581733600e-01
 s           1
      4.024514736300e-01      1.000000000000e+00
 s           1
      1.309018266800e-01      1.000000000000e+00
 p           3
      9.468097062100e+00      5.688833201104e-02
      2.010354514200e+00      3.129405933647e-01
      5.477100470700e-01      7.606501650914e-01
 p           1
      1.526861379500e-01      1.000000000000e+00
 d           1
      8.000000000000e-01      1.000000000000e+00

3
 s           3
      1.301070100000e+01      3.348548481299e-02
      1.962257200000e+00      2.347218708812e-01
      4.445379600000e-01      8.137702852596e-01
 s           1
      1.219496200000e-01      1.000000000000e+00
 p           1
      8.000000000000e-01      1.000000000000e+00

4
 s           3
      1.301070100000e+01      3.348548481299e-02
      1.962257200000e+00      2.347218708812e-01
      4.445379600000e-01      8.137702852596e-01
 s           1
      1.219496200000e-01      1.000000000000e+00
 p           1
      8.000000000000e-01      1.000000000000e+00

5
 s           3
      1.301070100000e+01      3.348548481299e-02
      1.962257200000e+00      2.347218708812e-01
      4.445379600000e-01      8.137702852596e-01
 s           1
      1.219496200000e-01      1.000000000000e+00
 p           1
      8.000000000000e-01      1.000000000000e+00

6
 s           3
      1.301070100000e+01      3.348548481299e-02
      1.962257200000e+00      2.347218708812e-01
      4.445379600000e-01      8.137702852596e-01
 s           1
      1.219496200000e-01      1.000000000000e+00
 p           1
      8.000000000000e-01      1.000000000000e+00


[5D]
[7F]
[9G]
[MO]
 Ene=  -11.250080
 Spin=  Alpha
 Occup=    2.000000
   1     0.9902152567413001
   2     0.0380266321798504
   3    -0.0335228749163402
   4     0.0001837899974348
   5    -0.0000271260413069
   6    -0.0000962845092750
   7     0.0000041469751744
   8     0.0003881467506405
   9    -0.0020314895793876
  10     0.0000758742036907
  11     0.0001221897694196
  12    -0.0000376533568481
  13    -0.0000952139545358
  14     0.0000238186032562
  15     0.0276861476541015
  16    -0.0006928976787048
  17     0.0094356624393870
  18    -0.0003666715624363
  19    -0.0001242483749018
  20     0.0011234549825193
  21     0.0010313720103070
  22     0.0003194504769464
  23    -0.0030024484665484
  24    -0.0007712907749201
  25     0.0004424120047782
  26     0.0001579221676472
  27    -0.0000458173158833
  28    -0.0000581144950006
  29    -0.0010875864206277
  30     0.0058793865562763
  31     0.0011403675067694
  32    -0.0002855431312235
  33     0.0000117288021864
  34    -0.0013743002241274
  35     0.0057324065382792
  36    -0.0001242575812084
  37     0.0011753205706512
  38    -0.0002428474086731
  39    -0.0013743736139174
  40     0.0057324835748347
  41    -0.0006207841133607
  42    -0.0008236998029154
  43    -0.0006260081266948
  44     0.0000648188982637
  45    -0.0007827547200799
  46    -0.0001637541801097
  47     0.0000487905137248
  48    -0.0000423790307007
 Ene=  -11.236121
 Spin=  Alpha
 Occup=    2.000000
   1     0.0272890382318691
   2     0.0030307986234501
   3    -0.0027276238498385
   4    -0.0005950747082054
   5    -0.0001851507462441
   6     0.0017372792480723
   7     0.0003228927379679
   8     0.0001936579665356
   9    -0.0014300970161431
  10     0.0009099064669998
  11    -0.0006053547311098
  12    -0.0001750214281313
  13     0.0001029828936593
  14     0.0000603357865075
  15    -0.9907788035528051
  16    -0.0333024653492388
  17     0.0166695605602124
  18    -0.0010447603711453
  19     0.0003519660884079
  20    -0.0004821159601690
  21     0.0012977650570968
  22    -0.0002383202237640
  23    -0.0004383860645734
  24    -0.0025026728808789
  25     0.0001709929778896
  26     0.0008348199053372
  27    -0.0000710281109483
  28     0.0000450461355785
  29    -0.0002898188537004
  30    -0.0009025801819631
  31     0.0002851925294092
  32    -0.0000128555404725
  33    -0.0003023771325809
  34    -0.0001924804645786
  35    -0.0007074486352775
  36     0.0000543718954085
  37     0.0002214221130040
  38    -0.0003313182823725
  39    -0.0001925488638073
  40    -0.0007078963674382
  41    -0.0000231753823926
  42    -0.0000906875930999
  43    -0.0003912041541233
  44     0.0035209941925016
  45    -0.0047579960655027
  46    -0.0005943786188599
  47     0.0004795910948302
  48    -0.0017317357150237
 Ene=   -1.004744
 Spin=  Alpha
 Occup=    2.000000
   1    -0.2248441599487326
   2     0.4392846948564904
   3     0.0907420092291693
   4    -0.0121712969348891
   5    -0.0102154539895332
   6     0.0690759248891458
   7     0.0038101776692312
   8    -0.0018740812113309
   9     0.0048312770861394
  10     0.0097423073711796
  11    -0.0040143931840497
  12    -0.0023407036101820
  13     0.0002339818273170
  14     0.0005782059433160
  15    -0.1509484930425242
  16     0.3027040345666670
  17     0.1195311879800156
  18     0.0423417105106792
  19     0.0111632314007563
  20    -0.1131127547654668
  21     0.0092808794920125
  22     0.0064320412827794
  23    -0.0455787916438066
  24     0.0176888587617976
  25    -0.0088266505055510
  26    -0.0040898057507898
  27     0.0015468585209529
  28     0.0007767328372621
  29     0.1432202833759360
  30     0.0196231802669389
  31    -0.0188748527814674
  32     0.0043385453464125
  33     0.0018212208411997
  34     0.1364227377891880
  35     0.0204886029331942
  36     0.0013986789049913
  37    -0.0173818400805329
  38     0.0071049134043120
  39     0.1364247493587780
  40     0.0204866442712130
  41     0.0084891656055646
  42     0.0111548306825814
  43     0.0125733680677163
  44     0.0646148261234654
  45     0.0140332687706866
  46    -0.0004248583550028
  47     0.0014313955801713
  48    -0.0069172969031034
 Ene=   -0.771256
 Spin=  Alpha
 Occup=    2.000000
   1     0.0954615840239219
   2    -0.1865717393426664
   3    -0.1288474565488390
   4    -0.0347900110108723
   5    -0.0246734753877667
   6     0.1737678197888927
   7    -0.0066595961949317
   8    -0.0064779070405601
   9     0.0424196879932338
  10     0.0119553305967148
  11    -0.0058235924523145
  12    -0.0029901302405545
  13     0.0018830924971773
  14     0.0000401132977913
  15    -0.2021403341592018
  16     0.4108941465463851
  17     0.2339770772706396
  18     0.0281577482671987
  19    -0.0315835610576569
  20     0.1282775324349807
  21     0.0119005854662017
  22    -0.0062201801104569
  23     0.0170259003533414
  24     0.0105811509860247
  25     0.0029334145505119
  26    -0.0045616699221052
  27     0.0005212364362432
  28    -0.0011067651438045
  29    -0.1063214606280942
  30    -0.0233433384683795
  31     0.0104523729408026
  32    -0.0032869317684953
  33     0.0036029743821337
  34    -0.1362173628815687
  35    -0.0273453547569374
  36    -0.0021840910896105
  37     0.0132374052843637
  38    -0.0011474281142465
  39    -0.1361984756718646
  40    -0.0273410715540303
  41    -0.0078266451014641
  42    -0.0094760141924735
  43    -0.0054986293788637
  44     0.2899744475930983
  45     0.0626189402390866
  46    -0.0034624194558847
  47     0.0057178029611336
  48    -0.0253424928781649
 Ene=   -0.591042
 Spin=  Alpha
 Occup=    2.000000
   1    -0.0000493301097035
   2     0.0105937680991705
   3     0.0107526131553747
   4    -0.1439592349397366
   5    -0.0301283083754641
   6     0.3426718272097183
   7    -0.0596547163229250
   8    -0.0145516623997051
   9     0.1527338037940626
  10     0.0199990257884457
  11    -0.0132008929044034
  12    -0.0035725421871629
  13     0.0009673250277084
  14     0.0020096366626143
  15    -0.0313057482822111
  16     0.0845489576691651
  17    -0.0176650720051118
  18     0.0191950682571077
  19     0.0718537703313218
  20    -0.3999310002415067
  21    -0.0040973255738123
  22     0.0246327727840003
  23    -0.1232389889087048
  24     0.0043900168896300
  25    -0.0113916173301424
  26     0.0014426657189665
  27     0.0004781628488822
  28     0.0021457564703745
  29    -0.1362778491460924
  30    -0.0543698534825211
  31     0.0079700985994122
  32    -0.0033253892420507
  33     0.0069942190584366
  34    -0.1153871562795132
  35    -0.0378616262859013
  36    -0.0041004679565044
  37     0.0089195567626726
  38     0.0030556678173617
  39    -0.1150832929419545
  40    -0.0377597784003844
  41    -0.0079294060197573
  42    -0.0065266694408973
  43     0.0001104565818525
  44    -0.2781767458269586
  45    -0.0861538301526107
  46     0.0032236940804222
  47    -0.0040646327175908
  48     0.0170224907567000
 Ene=   -0.570135
 Spin=  Alpha
 Occup=    2.000000
   1     0.0000073231015788
   2    -0.0000138697569633
   3     0.0000108076033797
   4     0.1027934278566700
   5     0.4088037316294088
   6     0.0790348922383010
   7     0.0501486601704612
   8     0.1995186846473190
   9     0.0385578265276183
  10    -0.0044721864184163
  11    -0.0057365142044303
  12    -0.0123951443808685
  13    -0.0086820134701532
  14    -0.0110267446815434
  15     0.0000366428199784
  16    -0.0000718130247583
  17    -0.0000854133489649
  18     0.0204267462922327
  19     0.0810866946762246
  20     0.0152670508054459
  21     0.0050118792451908
  22     0.0199322593110337
  23     0.0037421922873630
  24    -0.0045763561813055
  25    -0.0028392006379098
  26    -0.0133554814024544
  27    -0.0010087796532113
  28     0.0036712006957677
  29     0.0010604047083596
  30     0.0004130915758078
  31     0.0024063473048986
  32     0.0099285285866644
  33     0.0019207459032457
  34     0.3084703387939348
  35     0.1116923360788615
  36     0.0048662066860772
  37    -0.0138495139219572
  38     0.0107303935557584
  39    -0.3097260129247604
  40    -0.1121647776983355
  41    -0.0096446117505479
  42    -0.0055047866306488
  43    -0.0144618093623462
  44    -0.0002584874914487
  45    -0.0001067184720128
  46     0.0005169072064060
  47     0.0020520453444110
  48     0.0004042734933120
 Ene=   -0.566102
 Spin=  Alpha
 Occup=    2.000000
   1    -0.0012757684146402
   2     0.0037445725173879
   3    -0.0022807089917232
   4    -0.3834086101022418
   5     0.1232329889640352
   6    -0.1386162510441729
   7    -0.1825896881781220
   8     0.0583034242550359
   9    -0.0638813539944845
  10     0.0037765571477366
  11     0.0018228074435957
  12     0.0025371416322568
  13    -0.0194392710905310
  14     0.0099972573770788
  15    -0.0187120861902890
  16     0.0408062608458693
  17     0.0275300215322711
  18    -0.0862614314564732
  19     0.0163811336261224
  20     0.0278061382006853
  21    -0.0200833125742538
  22     0.0038030094650480
  23     0.0065493482676179
  24     0.0073568055711921
  25     0.0133449169061941
  26    -0.0045853169430112
  27    -0.0070530019761080
  28     0.0007858478614484
  29    -0.3554550182349421
  30    -0.1417430609390283
  31     0.0190228089773172
  32    -0.0036523988480907
  33    -0.0054085409322813
  34     0.1803101228373286
  35     0.0694910214875416
  36    -0.0085565349769838
  37    -0.0107652685924427
  38     0.0017717180262488
  39     0.1783546776409186
  40     0.0687697595447737
  41    -0.0029378797092703
  42     0.0120531942588101
  43     0.0060598822453685
  44     0.0416490939146705
  45     0.0204412960380225
  46    -0.0015360645253763
  47     0.0005565523402941
  48    -0.0008750698787139
 Ene=    0.000000
 Spin=  Alpha
 Occup=    1.158104
   1     0.0193110020613022
   2    -0.0512585701691570
   3     0.0330862573942612
   4     0.0765627846450269
   5    -0.0080794256892749
   6    -0.0570771941202157
   7     0.0713410609729160
   8    -0.0184339006681238
   9     0.0037121719156800
  10    -0.0156602345922467
  11    -0.0212154896177228
  12     0.0074410934601637
  13     0.0162533168783630
  14    -0.0038936204008656
  15    -0.0489993942694603
  16     0.1059706685643201
  17     0.1646869890291156
  18    -0.5636749085468394
  19     0.1389307399818468
  20     0.0055774487153288
  21    -0.5195421855817136
  22     0.1223881608926772
  23     0.0346875893438030
  24    -0.0029007579740350
  25     0.0012762929956832
  26     0.0014045717800576
  27    -0.0033005985155745
  28     0.0015582490314784
  29     0.1464231323236025
  30     0.1534466966753265
  31    -0.0027625320886125
  32     0.0017484527660569
  33    -0.0055443167823149
  34    -0.0580048521770561
  35    -0.0523026386385102
  36     0.0028534286145378
  37     0.0012481068285899
  38    -0.0005101361420289
  39    -0.0580068948426190
  40    -0.0522944001845307
  41     0.0020103162587153
  42    -0.0021371854512928
  43    -0.0011580983826034
  44    -0.0889953100628992
  45    -0.0772832635028287
  46    -0.0217246663638637
  47     0.0041064862584926
  48     0.0067257979471909
 Ene=    0.000000
 Spin=  Alpha
 Occup=    0.841896
   1     0.0000008874499525
   2    -0.0000010571255883
   3    -0.0000122891052527
   4     0.0113467764091160
   5     0.0456844242283903
   6     0.0087620034946228
   7     0.0139878184667979
   8     0.0563152698924323
   9     0.0107957655467452
  10    -0.0110783420883106
  11    -0.0079544609725486
  12    -0.0322335405450207
  13    -0.0055264662939755
  14     0.0032356340549537
  15    -0.0000019174765163
  16     0.0000056142342423
  17     0.0000078181046190
  18    -0.1416134576716453
  19    -0.5701679065541545
  20    -0.1092970554793676
  21    -0.1314999783607146
  22    -0.5294428889247035
  23    -0.1014903306399694
  24     0.0002097027305514
  25    -0.0011079807078512
  26     0.0009233065998834
  27    -0.0031571041218295
  28    -0.0062213468373649
  29    -0.0000084805006923
  30    -0.0000145744320749
  31     0.0004852578843665
  32     0.0019534920334097
  33     0.0003737606126856
  34     0.1264286523789479
  35     0.1284811261606481
  36     0.0020499721052480
  37    -0.0023570782194853
  38    -0.0005230630416058
  39    -0.1264253757134076
  40    -0.1284759593935279
  41    -0.0029320945479682
  42    -0.0011908805380435
  43    -0.0001555864414257
  44    -0.0000009819177103
  45    -0.0000018332933514
  46    -0.0060045391721252
  47    -0.0241753727012370
  48    -0.0046341461342706
 Ene=    0.189324
 Spin=  Alpha
 Occup=    0.000000
   1     0.1214806043418163
   2    -0.0820663630355936
   3    -3.4672545776127870
   4    -0.0301038650146425
   5    -0.0083356903936832
   6     0.0824902791445478
   7    -0.1044199335204921
   8    -0.0141588007470156
   9     0.2089682064424648
  10     0.0007173957706590
  11     0.0008907088046319
  12    -0.0002818483953241
  13    -0.0008993650286418
  14     0.0002786447555529
  15    -0.0067176426723892
  16    -0.0531502119696256
  17     0.8351202253391427
  18     0.0259101239458009
  19    -0.0030593845406405
  20    -0.0176198609908717
  21     0.1480926398336681
  22     0.0373401383017678
  23    -0.3865982484844827
  24    -0.0113117215968902
  25     0.0013398443299926
  26     0.0034944201472927
  27     0.0002406924836823
  28    -0.0002229857155361
  29    -0.0039999854635729
  30     1.2686257481039527
  31    -0.0055407820485235
  32     0.0011155774136867
  33     0.0013661762713928
  34     0.0126006535347936
  35     1.3450898202943655
  36     0.0007806498332076
  37    -0.0052696289688702
  38     0.0030291661291551
  39     0.0126062724137970
  40     1.3450388661118373
  41     0.0028135514588585
  42     0.0029152833885696
  43     0.0045949987489388
  44    -0.0712351496205226
  45    -0.0786073316544445
  46     0.0014991634882315
  47     0.0001869689587196
  48    -0.0029194554802421
 Ene=    0.222944
 Spin=  Alpha
 Occup=    0.000000
   1     0.0224164191851603
   2    -0.0878400242060231
   3     0.7859875760524202
   4     0.1415515093703899
   5    -0.0219092690246889
   6    -0.0692040102816623
   7     0.3252217827132898
   8    -0.1046854409332063
   9     0.1245709537004747
  10     0.0086820925522103
  11     0.0037829752623643
  12    -0.0028006366409454
  13    -0.0053893801706129
  14     0.0019381368373480
  15    -0.1010247773400970
  16     0.1897400569577564
  17     1.3521886363346427
  18     0.0585853901526624
  19    -0.0419214468147771
  20     0.1428163821235798
  21     0.1097926821137686
  22    -0.2329636094131972
  23     1.0731867788587532
  24    -0.0073132641139630
  25     0.0028350736154632
  26     0.0019589972166687
  27    -0.0008552780041608
  28    -0.0000274412488372
  29    -0.0425882622206324
  30    -0.8619499656973216
  31     0.0056965350111875
  32    -0.0007233597175130
  33    -0.0036104585122536
  34     0.0135560410177048
  35     0.1588436915003607
  36     0.0046958286438818
  37     0.0001403272860419
  38    -0.0058962493262761
  39     0.0135406284788472
  40     0.1587831168572789
  41     0.0046162442349420
  42    -0.0001831653794691
  43    -0.0059568052854154
  44    -0.0507550595961526
  45    -2.2717899030440667
  46     0.0033520581187314
  47    -0.0021840817702018
  48     0.0070531959579631
 Ene=    0.263767
 Spin=  Alpha
 Occup=    0.000000
   1     0.0000014530837654
   2    -0.0000005060781524
   3     0.0001019837124864
   4    -0.0734890918817257
   5    -0.2951785755632972
   6    -0.0566520661191302
   7    -0.3426448450852916
   8    -1.3758414137028125
   9    -0.2639975144905185
  10     0.0010731455490501
  11     0.0007451502841477
  12     0.0031160617685440
  13     0.0004703896548621
  14    -0.0004237440964653
  15    -0.0000265069735863
  16     0.0000620060597247
  17     0.0003825969484935
  18     0.0016532966330742
  19     0.0066210603841684
  20     0.0012969479498803
  21     0.0815908740032905
  22     0.3275634144643854
  23     0.0630626916522962
  24     0.0033894608085171
  25     0.0010714646581730
  26     0.0101883317294538
  27    -0.0018525947825696
  28    -0.0076847198125601
  29     0.0000011453022839
  30     0.0011703314082751
  31     0.0004499688297691
  32     0.0018479600330787
  33     0.0003549311233576
  34     0.0158405221521236
  35     1.7894924644347419
  36     0.0000776063436761
  37    -0.0100463177272695
  38     0.0080225355206689
  39    -0.0158619793124835
  40    -1.7907521660297305
  41    -0.0039165966233257
  42    -0.0054169268372094
  43    -0.0109943559734698
  44     0.0000115209514489
  45    -0.0005969408426140
  46     0.0005667334838687
  47     0.0022655863710331
  48     0.0004375003309795
 Ene=    0.267027
 Spin=  Alpha
 Occup=    0.000000
   1     0.0067099282945698
   2    -0.0150138193216379
   3     0.1763594438485249
   4    -0.2519184635610179
   5     0.0844016311078384
   6    -0.1128058246141880
   7    -1.2499397311200091
   8     0.3940122098373926
   9    -0.4311410826299916
  10     0.0028736257934109
  11     0.0027616919693731
  12    -0.0009862364443511
  13    -0.0033232330063766
  14     0.0011464823497964
  15    -0.0365220971587408
  16     0.0792509083660717
  17     0.6929059213226756
  18     0.0216264016238783
  19    -0.0182084238545594
  20     0.0669008547061432
  21     0.3520710134463930
  22    -0.1821325092921234
  23     0.4926884998999564
  24     0.0043245039615290
  25     0.0147453778211507
  26    -0.0062131440371086
  27     0.0033206573597969
  28    -0.0050798140500031
  29     0.0249063697780948
  30     1.8717941519006769
  31    -0.0120367058892760
  32     0.0021124329082351
  33     0.0045716485433825
  34    -0.0117501944553824
  35    -0.9935051886391542
  36     0.0013568694737186
  37     0.0063538837123235
  38    -0.0048127963593067
  39    -0.0117229484829163
  40    -0.9913232969174256
  41    -0.0012508213076052
  42    -0.0041415793759953
  43    -0.0068123584454095
  44     0.0214032129982415
  45    -1.1030677903284298
  46     0.0072148881465141
  47    -0.0029353559116923
  48     0.0059519265453430
 Ene=    0.411169
 Spin=  Alpha
 Occup=    0.000000
   1     0.0451132756474062
   2     0.0022531458671629
   3    -3.2749235442113394
   4     0.0578387852668417
   5     0.0268857446527647
   6    -0.2151843844990197
   7     0.8336795601352769
   8     0.2895763979415500
   9    -2.5911668866966169
  10     0.0258057715006771
  11    -0.0107594819346024
  12    -0.0051267300018946
  13    -0.0040017342636610
  14     0.0040502413925590
  15    -0.0862137519048553
  16     0.1042685888769403
  17     3.3819155941488308
  18     0.0412652751639109
  19     0.0281034360494698
  20    -0.2000321129493764
  21     0.6293108535743674
  22     0.3136369909364521
  23    -2.4517790733809219
  24    -0.0277285710203559
  25    -0.0064983138291399
  26     0.0109968292849733
  27     0.0014641858116714
  28     0.0011097676339624
  29    -0.1655987490768008
  30    -0.1024221926891321
  31    -0.0028547276848817
  32     0.0001257104584696
  33     0.0030257635822043
  34    -0.0515814993181582
  35    -0.2388367125423133
  36     0.0033910282095944
  37    -0.0017750286902887
  38    -0.0044303011310890
  39    -0.0516665435207597
  40    -0.2385971628065588
  41     0.0041998476154772
  42     0.0014667863063994
  43    -0.0038042565078440
  44    -0.2730609579226863
  45     0.8961010373142697
  46     0.0049112783497973
  47     0.0029990097119293
  48    -0.0220023105319938
 Ene=    0.532945
 Spin=  Alpha
 Occup=    0.000000
   1     0.0443572643765910
   2    -0.3795594793807928
   3     0.6929176283827853
   4     0.0893895393660172
   5     0.0475818611140006
   6    -0.3642485018001890
   7    -0.1443295042131700
   8    -0.1050779719957092
   9     0.7353671493627757
  10    -0.0351504500463361
  11     0.0344721320228143
  12     0.0063654838677191
  13    -0.0154172723463206
  14     0.0014475891487526
  15     0.1421650393779141
  16    -1.0966213386653261
  17     1.0600181935061541
  18    -0.0298238340401137
  19    -0.0292455032544068
  20     0.1911705508527962
  21     0.1364887681523589
  22    -0.0616551987160285
  23     0.1447130684820213
  24    -0.0714197557709609
  25     0.0056841821360594
  26     0.0234018676491476
  27    -0.0011078367673800
  28     0.0006126306179453
  29     0.0194720217268522
  30    -0.2530716676448306
  31    -0.0038815592951321
  32    -0.0026113948315650
  33     0.0186670048850576
  34     0.1934500906998000
  35    -0.2424822539636884
  36    -0.0032181635375051
  37    -0.0022905783896617
  38     0.0165279553245540
  39     0.1935045143871628
  40    -0.2426499449657648
  41    -0.0032500995835777
  42    -0.0024324899823886
  43     0.0164932370478557
  44    -0.4494380618627043
  45    -0.1554464032959416
  46     0.0106532682947540
  47     0.0038946058032397
  48    -0.0341317199059660
 Ene=    0.644732
 Spin=  Alpha
 Occup=    0.000000
   1     0.0223347659968078
   2    -0.1442588903523054
   3    -0.9483859193493689
   4     0.2658882883465793
   5    -0.0585375107798151
   6    -0.0397929898557577
   7    -1.0311543796128599
   8     0.4391529462150981
   9    -0.9514126335187681
  10    -0.0282123430558765
  11    -0.0041746199518463
  12    -0.0079616791839964
  13     0.0836328050527278
  14    -0.0437891236830555
  15     0.0268878172756559
  16    -0.2272456635646261
  17     1.1771757470184361
  18     0.0449062688277773
  19    -0.0288701831883551
  20     0.0917725367760318
  21     0.6045888365898059
  22     0.0284338100395826
  23    -0.9326722153200577
  24     0.0016104114061767
  25     0.0298659368573933
  26    -0.0106292004867464
  27     0.0090108405847003
  28    -0.0114018726863934
  29     0.8261077238857245
  30    -0.1822752585596749
  31    -0.0017349737862708
  32    -0.0012471116146492
  33     0.0088837067463967
  34    -0.4218774936912398
  35    -0.0101889696092988
  36    -0.0454267332283033
  37    -0.0168719197012759
  38    -0.0126983552864891
  39    -0.4211008917632292
  40    -0.0103945555429110
  41    -0.0316288121953739
  42     0.0388447389153373
  43    -0.0020392372185036
  44     0.1925823441676300
  45     0.0631556519715782
  46     0.0364243209711211
  47    -0.0081752533001443
  48    -0.0046945443122245
 Ene=    0.675299
 Spin=  Alpha
 Occup=    0.000000
   1     0.0000178070367425
   2    -0.0001924822948303
   3     0.0002662829905813
   4     0.0539232766142789
   5     0.2164691767082378
   6     0.0414864587622636
   7    -0.3546820617457488
   8    -1.4245238117236683
   9    -0.2731983899635440
  10    -0.0224295697186235
  11    -0.0302070889303775
  12    -0.0617053909527740
  13    -0.0477230108867111
  14    -0.0625786889536236
  15     0.0000385495341396
  16    -0.0002362909211429
  17     0.0001791048100076
  18     0.0443281639342970
  19     0.1784075783911426
  20     0.0342565952282432
  21     0.0912081244712221
  22     0.3661156414412129
  23     0.0700949431364052
  24     0.0095017688683032
  25     0.0032743477621306
  26     0.0285157005109960
  27    -0.0044949060313741
  28    -0.0202302153526922
  29     0.0003865073142013
  30     0.0000306322115779
  31    -0.0176137120482189
  32    -0.0708900147296875
  33    -0.0135818072680371
  34     0.7743042516088025
  35     0.0215359055058681
  36    -0.0350999921099410
  37    -0.0018004041096770
  38    -0.0165775766330359
  39    -0.7748014471688163
  40    -0.0216852967100683
  41     0.0288562700654030
  42    -0.0230974438358640
  43     0.0117978264316922
  44     0.0001131672146053
  45    -0.0001123257557350
  46     0.0125720940479509
  47     0.0505250720685208
  48     0.0096896753617245
 Ene=    0.733372
 Spin=  Alpha
 Occup=    0.000000
   1     0.0422997953750237
   2    -0.2150872094808684
   3    -0.2672574490952876
   4     0.0776487213016104
   5     0.0159790323427318
   6    -0.1839589651813786
   7    -0.1291674043166134
   8    -0.0330772153910395
   9     0.3398290524514292
  10    -0.0289221727428647
  11    -0.0219530565760976
  12     0.0158471037675991
  13     0.0002010404188122
  14     0.0051861918871492
  15    -0.1362134498981261
  16     0.7225079113745934
  17    -1.2724320441003418
  18    -0.8172056956787586
  19     0.1780354620142961
  20     0.1305204149721210
  21     0.9090294828054333
  22    -0.0963740001978043
  23    -0.6755176459491269
  24    -0.0277418672096262
  25     0.0243213183319532
  26     0.0052239115196731
  27    -0.0096216806048529
  28     0.0003919243017470
  29     0.1061648068315448
  30    -0.1877367442356409
  31     0.0049288623777408
  32    -0.0041551461917338
  33     0.0153052037769367
  34     0.1523615737154206
  35     0.1591647453043601
  36     0.0152351349531163
  37     0.0115475594214680
  38    -0.0048032397781936
  39     0.1523471515138000
  40     0.1591085378431940
  41     0.0087135089220596
  42    -0.0146977829002371
  43    -0.0098358057250514
  44     0.0196553729588862
  45     0.7677925934134499
  46    -0.0203741003017545
  47     0.0106882498578129
  48    -0.0293401631721273
 Ene=    0.759285
 Spin=  Alpha
 Occup=    0.000000
   1    -0.0000042753421252
   2     0.0000490654768468
   3    -0.0002703659487257
   4    -0.0140248861715453
   5    -0.0564135107254449
   6    -0.0108169820885597
   7     0.1028735696174700
   8     0.4140133978078632
   9     0.0792613001568073
  10     0.0153685741260099
  11     0.0105548076391723
  12     0.0448307696216171
  13     0.0064266921154754
  14    -0.0068381560013027
  15     0.0000032063197608
  16    -0.0000266377716507
  17     0.0002007156231263
  18     0.2358920900709879
  19     0.9493861944816705
  20     0.1819844708534318
  21    -0.3011084853218124
  22    -1.2120040687856526
  23    -0.2324438067989676
  24    -0.0081954999227148
  25    -0.0040348754406794
  26    -0.0243060716704778
  27     0.0007041537413372
  28     0.0114430019444773
  29     0.0000402021474940
  30     0.0000004492078656
  31    -0.0009598608814514
  32    -0.0038805587107731
  33    -0.0007478954953332
  34    -0.1123124738239271
  35     0.1572560916221331
  36     0.0101004542051121
  37    -0.0008933386936855
  38    -0.0296914503091609
  39     0.1123193388607036
  40    -0.1572340256139422
  41    -0.0119439171699081
  42    -0.0065206591334978
  43     0.0282731585488633
  44     0.0000104802844315
  45     0.0000119907137137
  46     0.0048506700503942
  47     0.0195113286740603
  48     0.0037384835313094
 Ene=    0.841848
 Spin=  Alpha
 Occup=    0.000000
   1    -0.2114471988132446
   2     1.2750113892080654
   3    -3.2892139942733998
   4    -0.0700982823229474
   5    -0.0078936855888404
   6     0.1320978019812792
   7     0.0366478803112760
   8     0.1296517023215718
   9    -0.7237930201924118
  10    -0.0112587284334467