[Molden Format]
[Atoms] Angs
 c       1                    6  1.079222000000e-02  8.027695000000e-02 -4.318047100000e-01
 c       2                    6 -4.030706000000e-01 -8.212021000000e-02  9.517939900000e-01
 h       3                    1  1.090585400000e+00 -1.705349800000e-01 -5.294741200000e-01
 h       4                    1 -1.121989200000e-01  1.119241800000e+00 -8.026553000000e-01
 h       5                    1 -5.373194200000e-01 -5.865768200000e-01 -1.129486040000e+00
 h       6                    1 -4.878867000000e-02 -3.592867400000e-01  1.942626170000e+00
[GTO]
1
 s           5
      1.238401693800e+03      5.517365048110e-03
      1.862900499200e+02      4.108882855595e-02
      4.225117634600e+01      1.822538212649e-01
      1.167655793200e+01      4.682845943743e-01
      3.593050648200e+00      4.457581733600e-01
 s           1
      4.024514736300e-01      1.000000000000e+00
 s           1
      1.309018266800e-01      1.000000000000e+00
 p           3
      9.468097062100e+00      5.688833201104e-02
      2.010354514200e+00      3.129405933647e-01
      5.477100470700e-01      7.606501650914e-01
 p           1
      1.526861379500e-01      1.000000000000e+00
 d           1
      8.000000000000e-01      1.000000000000e+00

2
 s           5
      1.238401693800e+03      5.517365048110e-03
      1.862900499200e+02      4.108882855595e-02
      4.225117634600e+01      1.822538212649e-01
      1.167655793200e+01      4.682845943743e-01
      3.593050648200e+00      4.457581733600e-01
 s           1
      4.024514736300e-01      1.000000000000e+00
 s           1
      1.309018266800e-01      1.000000000000e+00
 p           3
      9.468097062100e+00      5.688833201104e-02
      2.010354514200e+00      3.129405933647e-01
      5.477100470700e-01      7.606501650914e-01
 p           1
      1.526861379500e-01      1.000000000000e+00
 d           1
      8.000000000000e-01      1.000000000000e+00

3
 s           3
      1.301070100000e+01      3.348548481299e-02
      1.962257200000e+00      2.347218708812e-01
      4.445379600000e-01      8.137702852596e-01
 s           1
      1.219496200000e-01      1.000000000000e+00
 p           1
      8.000000000000e-01      1.000000000000e+00

4
 s           3
      1.301070100000e+01      3.348548481299e-02
      1.962257200000e+00      2.347218708812e-01
      4.445379600000e-01      8.137702852596e-01
 s           1
      1.219496200000e-01      1.000000000000e+00
 p           1
      8.000000000000e-01      1.000000000000e+00

5
 s           3
      1.301070100000e+01      3.348548481299e-02
      1.962257200000e+00      2.347218708812e-01
      4.445379600000e-01      8.137702852596e-01
 s           1
      1.219496200000e-01      1.000000000000e+00
 p           1
      8.000000000000e-01      1.000000000000e+00

6
 s           3
      1.301070100000e+01      3.348548481299e-02
      1.962257200000e+00      2.347218708812e-01
      4.445379600000e-01      8.137702852596e-01
 s           1
      1.219496200000e-01      1.000000000000e+00
 p           1
      8.000000000000e-01      1.000000000000e+00


[5D]
[7F]
[9G]
[MO]
 Ene=  -11.250587
 Spin=  Alpha
 Occup=    2.000000
   1    -0.8368176172561640
   2    -0.0312967675408322
   3     0.0275221491211297
   4    -0.0002799258056354
   5    -0.0001344880692082
   6     0.0010656686870005
   7    -0.0003158479725375
   8    -0.0001054324356874
   9     0.0009384181354245
  10     0.0004714674521212
  11    -0.0003975667266627
  12    -0.0000905941740483
  13     0.0001554052393977
  14    -0.0000051437312014
  15    -0.5307752630087744
  16    -0.0162935984195293
  17     0.0007035630087432
  18    -0.0010497349501711
  19     0.0004624380121280
  20    -0.0010600204791395
  21     0.0000510483074488
  22    -0.0005075451848689
  23     0.0025865959983710
  24    -0.0004381224083908
  25    -0.0004320577270837
  26     0.0003284881906801
  27    -0.0002752226581616
  28     0.0002493968665846
  29     0.0008862129190526
  30    -0.0053379283177000
  31    -0.0008149581441026
  32     0.0002382599087042
  33    -0.0001808789833679
  34     0.0010570789017583
  35    -0.0053796002038837
  36     0.0002006520572064
  37    -0.0009374026939407
  38     0.0000576951204479
  39     0.0010554812938201
  40    -0.0053824732340651
  41     0.0005977435170322
  42     0.0006572729520071
  43     0.0003627456289216
  44     0.0016100072762655
  45    -0.0021001345036258
  46    -0.0003108655742030
  47     0.0002236133115086
  48    -0.0007671189230034
 Ene=  -11.249761
 Spin=  Alpha
 Occup=    2.000000
   1     0.5300840111129829
   2     0.0218534448600534
   3    -0.0194303575756629
   4    -0.0004107436607969
   5    -0.0001304513264660
   6     0.0012117370468783
   7    -0.0001059199341959
   8     0.0004744774282456
   9    -0.0023415017569552
  10     0.0007445484466907
  11    -0.0004830074685334
  12    -0.0001412379895209
  13     0.0000576406834934
  14     0.0000607864313296
  15    -0.8372191971595312
  16    -0.0285888590442566
  17     0.0194059322691878
  18    -0.0023336194294878
  19     0.0005251726985646
  20     0.0002703627808747
  21     0.0024998008026625
  22    -0.0002785092806614
  23    -0.0017731572540060
  24    -0.0022380566566210
  25     0.0000607450098868
  26     0.0008681343972546
  27    -0.0005007300592597
  28     0.0002949563716879
  29    -0.0006911437135679
  30     0.0025493634037334
  31     0.0008265314270554
  32    -0.0001508659390570
  33    -0.0002871317532619
  34    -0.0009212839590268
  35     0.0021945793825700
  36    -0.0000028115931453
  37     0.0008139223494017
  38    -0.0004017259966524
  39    -0.0009212930877841
  40     0.0021933193298752
  41    -0.0003366629883321
  42    -0.0005254450273470
  43    -0.0006583012147576
  44     0.0026873937628205
  45    -0.0047626348652214
  46    -0.0008794200179575
  47     0.0004747869441373
  48    -0.0013451199304134
 Ene=   -1.008646
 Spin=  Alpha
 Occup=    2.000000
   1    -0.2235730274559564
   2     0.4368491923421940
   3     0.1077787479912980
   4    -0.0180663149683297
   5    -0.0087401300402841
   6     0.0689031894061013
   7     0.0063875446176815
   8    -0.0038118217815009
   9     0.0117188959419492
  10     0.0104042046355222
  11    -0.0035918286844307
  12    -0.0022872189286991
  13    -0.0015290606580955
  14     0.0014211074668273
  15    -0.1504479766758049
  16     0.3032689648248108
  17     0.1093300374547389
  18     0.0598156218597925
  19     0.0065394931798281
  20    -0.1114745560285270
  21     0.0148584190155860
  22     0.0036064083539032
  23    -0.0380504055923532
  24     0.0162713822322380
  25    -0.0103198164383251
  26    -0.0036317445135026
  27     0.0034658137178718
  28     0.0000949117935575
  29     0.1329458075201198
  30     0.0130840989799947
  31    -0.0181390770213046
  32     0.0041677640199492
  33     0.0018553102074472
  34     0.1392187997115476
  35     0.0211467651880505
  36     0.0016047849569910
  37    -0.0175041904270431
  38     0.0069729388624904
  39     0.1392426146374557
  40     0.0211577988276082
  41     0.0087641804320285
  42     0.0111962619362620
  43     0.0124733861406864
  44     0.0718236280580370
  45     0.0120464050812169
  46    -0.0010659976340305
  47     0.0019611256225423
  48    -0.0088713484418831
 Ene=   -0.776665
 Spin=  Alpha
 Occup=    2.000000
   1     0.0985712611403070
   2    -0.1926931411119440
   3    -0.1310962064647377
   4    -0.0276834323116182
   5    -0.0273112617319059
   6     0.1786702397115495
   7    -0.0057776150373961
   8    -0.0073670983528221
   9     0.0460724768073064
  10     0.0128632884243269
  11    -0.0052825742682325
  12    -0.0034359111869647
  13     0.0018527020523103
  14    -0.0000782830169695
  15    -0.1992727161895207
  16     0.4094567465754890
  17     0.2242297866295446
  18     0.0624646980653584
  19    -0.0381968743028663
  20     0.1189482720733347
  21     0.0221183571879590
  22    -0.0083223245408309
  23     0.0149177708285907
  24     0.0074512673820998
  25     0.0067871987892671
  26    -0.0053031514166738
  27     0.0040782518958966
  28    -0.0037971584147178
  29    -0.1094258839501060
  30    -0.0224889312383010
  31     0.0105147475069624
  32    -0.0032192064438549
  33     0.0031001341322222
  34    -0.1399539471951070
  35    -0.0278233540510274
  36    -0.0023910093562195
  37     0.0137529125188116
  38    -0.0010297548155324
  39    -0.1399719830932290
  40    -0.0277953471286225
  41    -0.0082710493076410
  42    -0.0098348452377090
  43    -0.0055483911906982
  44     0.2854974963050767
  45     0.0621647898296555
  46    -0.0061387773052842
  47     0.0062020547199213
  48    -0.0244819200941605
 Ene=   -0.590525
 Spin=  Alpha
 Occup=    2.000000
   1    -0.0006851675363665
   2    -0.0093919470900409
   3    -0.0315673232855253
   4     0.2728935787258607
   5    -0.0175227874639714
   6    -0.2604495363025890
   7     0.1152062589040324
   8    -0.0035505223045962
   9    -0.1298393546138886
  10    -0.0180045159519044
  11     0.0108555576478477
  12     0.0018026050573079
  13     0.0065488911944817
  14    -0.0056350734558953
  15     0.0397227279656991
  16    -0.1026498854793262
  17     0.0074910927158599
  18     0.0689992942196860
  19    -0.0843219865815134
  20     0.3516347059265332
  21     0.0505346631940311
  22    -0.0301278220938767
  23     0.0921464960720786
  24    -0.0089436897691020
  25     0.0142999772381132
  26    -0.0016257538342472
  27     0.0039241986755735
  28    -0.0050681149360476
  29     0.2550801872408149
  30     0.1014459635440293
  31    -0.0149905078962444
  32     0.0043524368700263
  33    -0.0031243182858950
  34     0.0338602422974329
  35     0.0095540703450116
  36     0.0072419125236221
  37    -0.0036601687405800
  38    -0.0039705222792525
  39     0.0330722750833846
  40     0.0093042754109185
  41     0.0083988852773301
  42     0.0010883473093324
  43    -0.0030972736464314
  44     0.2486736486594302
  45     0.0839569793677406
  46    -0.0039476823082936
  47     0.0037295766554042
  48    -0.0143848660558409
 Ene=   -0.573918
 Spin=  Alpha
 Occup=    2.000000
   1     0.0000327740656890
   2    -0.0000834542301485
   3    -0.0001151731071950
   4     0.0989646619079121
   5     0.4078613677093375
   6     0.0764708518514270
   7     0.0514763833238260
   8     0.2117453546883027
   9     0.0398086899174617
  10    -0.0036502786007230
  11    -0.0054309634750090
  12    -0.0098430260233557
  13    -0.0093527588865470
  14    -0.0128294385986499
  15    -0.0001163288784194
  16     0.0002106621901598
  17     0.0004095315799613
  18     0.0186138392920033
  19     0.0783667845438766
  20     0.0159648778219149
  21     0.0072911702909085
  22     0.0308807768501800
  23     0.0062176113046654
  24    -0.0048085570842862
  25    -0.0025882062009369
  26    -0.0142922760095610
  27    -0.0005098711863425
  28     0.0051271287762937
  29    -0.0022374672093498
  30    -0.0008095005968887
  31     0.0022364627510301
  32     0.0084510309379343
  33     0.0015745181291648
  34     0.3076385885790495
  35     0.1008853304669762
  36     0.0055893409986910
  37    -0.0137879253722239
  38     0.0115209108235346
  39    -0.3046754606126690
  40    -0.0997619143715995
  41    -0.0102184538594368
  42    -0.0045637372781269
  43    -0.0149756621964089
  44     0.0007097294666702
  45     0.0002362010710140
  46     0.0003493785159100
  47     0.0015484912638686
  48     0.0002640265045389
 Ene=   -0.568870
 Spin=  Alpha
 Occup=    2.000000
   1    -0.0081568923154564
   2     0.0208752322920956
   3     0.0233940604144977
   4     0.2890510667976047
   5    -0.1193079360874743
   6     0.2634720974355257
   7     0.1392694367924130
   8    -0.0564930894371072
   9     0.1223267197940465
  10     0.0060953766196863
  11    -0.0078448203351885
  12    -0.0036869578463721
  13     0.0158515676251554
  14    -0.0071553051754948
  15     0.0159191633168453
  16    -0.0274112808284586
  17    -0.0641298774447492
  18     0.1359127073618267
  19     0.0046111713723541
  20    -0.1969984243896051
  21     0.0598252831983195
  22    -0.0019594772390866
  23    -0.0659758678252809
  24    -0.0037516492303079
  25    -0.0214062036680394
  26     0.0050371404061798
  27     0.0083397926053020
  28     0.0002429066031210
  29     0.2533776398287819
  30     0.0941246284963337
  31    -0.0134839989828646
  32     0.0020506122479613
  33     0.0072225775791335
  34    -0.2025141259904072
  35    -0.0755377427530503
  36     0.0056775886134511
  37     0.0131656913587138
  38    -0.0000523471076581
  39    -0.2069616920363459
  40    -0.0770343002961054
  41    -0.0010854800235675
  42    -0.0134170133567345
  43    -0.0053459507570615
  44    -0.1403327095218986
  45    -0.0481890671962108
  46     0.0058026049220698
  47    -0.0025064868807372
  48     0.0056638109672963
 Ene=   -0.296821
 Spin=  Alpha
 Occup=    2.000000
   1     0.0209969477661546
   2    -0.0560635235851528
   3     0.0206361717876474
   4     0.1272586490665877
   5    -0.0201583273770736
   6    -0.0589946469409987
   7     0.0778448116002779
   8    -0.0187779452153265
   9    -0.0025749258520296
  10    -0.0152646439101444
  11    -0.0209936951092182
  12     0.0068709301379471
  13     0.0176563100317269
  14    -0.0047518413017715
  15    -0.0702003031610293
  16     0.1516130405899145
  17     0.2364426282435577
  18    -0.5261879459227332
  19     0.1217665069094660
  20     0.0429881597633609
  21    -0.4818610376833073
  22     0.1054458221159998
  23     0.0710663040446250
  24    -0.0007450501843124
  25     0.0016032804102576
  26     0.0026185764365296
  27    -0.0124196370769657
  28     0.0063313456974992
  29     0.1885431854192876
  30     0.1677287892419957
  31    -0.0053702253200662
  32     0.0022089849205997
  33    -0.0044703640647972
  34    -0.0762966919520432
  35    -0.0535062169298123
  36     0.0040734630942469
  37     0.0024318042653501
  38    -0.0005534967418727
  39    -0.0769926584649988
  40    -0.0541541740101282
  41     0.0025348925725349
  42    -0.0036577273821991
  43    -0.0017282438050685
  44    -0.1131317618639893
  45    -0.0981161497872102
  46    -0.0183277620122438
  47     0.0026187191961696
  48     0.0099713961859222
 Ene=    0.085555
 Spin=  Alpha
 Occup=    0.000000
   1     0.0000236879887498
   2    -0.0000184254256225
   3    -0.0004398638626666
   4     0.0040317036662794
   5     0.0163490002004018
   6     0.0031826208671219
   7    -0.0155023159221085
   8    -0.0622903136199438
   9    -0.0118213338925587
  10    -0.0108936995488010
  11    -0.0081691253042967
  12    -0.0316789326793541
  13    -0.0064147400512145
  14     0.0014512462279770
  15    -0.0000088746548786
  16     0.0000094378959590
  17     0.0001398107582140
  18    -0.1020994994853143
  19    -0.4133630636231586
  20    -0.0791278879182382
  21    -0.1610795668658880
  22    -0.6522298317280986
  23    -0.1248297928606495
  24     0.0010274566705181
  25    -0.0022025938503769
  26     0.0037295643299382
  27    -0.0070765549901363
  28    -0.0147005252416278
  29    -0.0003564920589485
  30    -0.0004815145929670
  31     0.0004584505764296
  32     0.0018188849354236
  33     0.0003744842824418
  34     0.1509802812102685
  35     0.3048952440515983
  36     0.0038362904874052
  37    -0.0027558835228926
  38    -0.0055495597224023
  39    -0.1506119942808158
  40    -0.3039931208383410
  41    -0.0051350988837109
  42    -0.0024549293329041
  43     0.0045388867827175
  44    -0.0000111807387051
  45    -0.0000936731835311
  46    -0.0047247762520631
  47    -0.0191182225550180
  48    -0.0036588362259846
 Ene=    0.186380
 Spin=  Alpha
 Occup=    0.000000
   1     0.1196708761815394
   2    -0.0798062497720666
   3    -3.4019069512780344
   4    -0.0176919139022665
   5    -0.0145712165017566
   6     0.0983341076208922
   7    -0.0042280612996492
   8    -0.0518627717893162
   9     0.2756473115917036
  10     0.0000223384821594
  11     0.0008832583617337
  12    -0.0002323768373957
  13     0.0000177291335030
  14    -0.0001955466617898
  15     0.0014174982616797
  16    -0.0668916527404373
  17     0.6896790902504042
  18     0.0269511204073662
  19    -0.0008735307758084
  20    -0.0297157834089481
  21     0.1316488290907140
  22     0.0432010970029163
  23    -0.3941563787324287
  24    -0.0092225606821612
  25    -0.0005656386659153
  26     0.0031493350310430
  27     0.0008393645462750
  28    -0.0001653608653163
  29    -0.0086929201344931
  30     1.1638238052127636
  31    -0.0048774506681897
  32     0.0009379648327893
  33     0.0014013335359788
  34     0.0148294337970627
  35     1.3996274831524815
  36     0.0000418363362013
  37    -0.0052417257604446
  38     0.0031337570777380
  39     0.0149791599265320
  40     1.3988765573862927
  41     0.0021558092154653
  42     0.0031839811721572
  43     0.0047380588566331
  44    -0.0633716133976544
  45     0.0156184997320077
  46     0.0014549240015679
  47     0.0000205502498436
  48    -0.0019707571792195
 Ene=    0.220460
 Spin=  Alpha
 Occup=    0.000000
   1     0.0218596974863660
   2    -0.0700279303823480
   3     0.3694010526652553
   4     0.1551741482999823
   5    -0.0284819537827929
   6    -0.0527275027973932
   7     0.3951172016185098
   8    -0.1022178882163674
   9     0.0186361680006193
  10     0.0088543732330607
  11     0.0052651943218523
  12    -0.0030582537547422
  13    -0.0061702204140436
  14     0.0020473224578942
  15    -0.0943652011522909
  16     0.1701114625360975
  17     1.4642239359656812
  18     0.0978676804594355
  19    -0.0511722888137772
  20     0.1412131156733539
  21     0.2821281185921266
  22    -0.2271261978629220
  23     0.8240967122220448
  24    -0.0083354259991038
  25     0.0037019487359989
  26     0.0017552018491108
  27     0.0006256467660919
  28    -0.0009795887718769
  29    -0.0435185872351500
  30    -0.8866001634560262
  31     0.0056522474312487
  32    -0.0007483618775204
  33    -0.0034307801156989
  34     0.0163607251796205
  35     0.2764620968842351
  36     0.0052945353171910
  37     0.0004575584657279
  38    -0.0040468984055747
  39     0.0164569299218594
  40     0.2772979768018817
  41     0.0048397626254460
  42    -0.0013532846937431
  43    -0.0044049008512201
  44    -0.0431877724147764
  45    -2.1191428911377406
  46     0.0028858158928561
  47    -0.0019400137466051
  48     0.0064539138730665
 Ene=    0.258944
 Spin=  Alpha
 Occup=    0.000000
   1     0.0000510730545133
   2     0.0000430322006720
   3    -0.0023078764377856
   4     0.0732342782241463
   5     0.2964108686411910
   6     0.0565834299887810
   7     0.3358009353953055
   8     1.3598308776925652
   9     0.2592411406928404
  10    -0.0017101047550207
  11    -0.0013152675225542
  12    -0.0050003051732561
  13    -0.0011046079124302
  14     0.0000807939438871
  15    -0.0000824298343030
  16     0.0001590020037936
  17     0.0024076129807759
  18    -0.0094246538204820
  19    -0.0384807114720881
  20    -0.0072311213711993
  21    -0.0929668986134128
  22    -0.3788378262176816
  23    -0.0721830115110768
  24    -0.0030396011014170
  25    -0.0010981383839423
  26    -0.0090990759726583
  27     0.0012478883555408
  28     0.0060417559367714
  29    -0.0000728373772472
  30     0.0051575228622317
  31    -0.0005746519860203
  32    -0.0021378167804105
  33    -0.0003885068049435
  34    -0.0052986090603630
  35    -1.7522751308566902
  36     0.0002270656239371
  37     0.0088535506877611
  38    -0.0079312096808601
  39     0.0053261284753464
  40     1.7491046049858585
  41     0.0031369813750590
  42     0.0045781000437553
  43     0.0104967477629364
  44    -0.0000434998953167
  45    -0.0021275377698123
  46    -0.0005495782459385
  47    -0.0022972545278530
  48    -0.0004342304746610
 Ene=    0.269465
 Spin=  Alpha
 Occup=    0.000000
   1    -0.0166326201849805
   2     0.0140888049543545
   3     0.2407336302629327
   4     0.2490512729844756
   5    -0.0801448735378499
   6     0.0979720120978919
   7     1.2476838800758776
   8    -0.3961442452806540
   9     0.4622777650853352
  10    -0.0054804438483382
  11    -0.0037950421531651
  12     0.0020645239170293
  13     0.0036982976475797
  14    -0.0010799732291261
  15     0.0480999610604175
  16    -0.1027286798284654
  17    -0.9496010677081568
  18    -0.0572467469855118
  19     0.0256970281437135
  20    -0.0608139902465494
  21    -0.4715692396296150
  22     0.1957609365740181
  23    -0.4152497025347317
  24    -0.0034913400571896
  25    -0.0163212295848193
  26     0.0065363422486838
  27    -0.0042745014486315
  28     0.0059571021265491
  29    -0.0176328549873981
  30    -1.9512389496740505
  31     0.0135114826156888
  32    -0.0024441931539120
  33    -0.0048433828724889
  34     0.0104552038219585
  35     0.8667802227313256
  36    -0.0010903655484638
  37    -0.0055167077475390
  38     0.0048437957256535
  39     0.0106240816252464
  40     0.8750598085371590
  41     0.0011162801855081
  42     0.0033679105682800
  43     0.0065890525906459
  44    -0.0340593584823652
  45     1.2615290401385804
  46    -0.0083946699056731
  47     0.0031801760823531
  48    -0.0057214957873584
 Ene=    0.416443
 Spin=  Alpha
 Occup=    0.000000
   1     0.0456727299125660
   2     0.0122516156436055
   3    -3.1087563618891951
   4     0.0537030672450885
   5     0.0230417713843153
   6    -0.1904270392015757
   7     0.8482838703726295
   8     0.2776587418913973
   9    -2.5484998718092897
  10     0.0294757038280536
  11    -0.0136459249517965
  12    -0.0065955085155339
  13     0.0003784076112919
  14     0.0022725420682399
  15    -0.0927874697132050
  16     0.1710837985397134
  17     3.1675662916398384
  18     0.0470264380228595
  19     0.0352909609109923
  20    -0.2451570468599127
  21     0.5975847536208801
  22     0.2981667945939942
  23    -2.3301568128492303
  24    -0.0183217813152107
  25    -0.0123311878562963
  26     0.0091615186196481
  27     0.0020603447941044
  28     0.0018925412111793
  29    -0.1541088820742079
  30    -0.1766996706987005
  31    -0.0012297224437785
  32     0.0001372028376945
  33     0.0008845207409293
  34    -0.0851052019034975
  35    -0.1632011057261525
  36     0.0029479529190030
  37    -0.0031619009552821
  38    -0.0080645819513540
  39    -0.0850137371548717
  40    -0.1631173920087453
  41     0.0047216874595673
  42     0.0040535574423201
  43    -0.0066365229731692
  44    -0.2142572687763642
  45     0.7858113600688358
  46     0.0062270697285288
  47     0.0014889673530442
  48    -0.0158008660951632
 Ene=    0.539681
 Spin=  Alpha
 Occup=    0.000000
   1    -0.0505220808038463
   2     0.3830098423895868
   3    -0.2884638412950532
   4    -0.0439385141104888
   5    -0.0630726084955841
   6     0.3873107335098432
   7    -0.0534870267550525
   8     0.0988496716960176
   9    -0.4488706715675543
  10     0.0303767584437916
  11    -0.0379643133614935
  12    -0.0065394495969338
  13     0.0273716094964746
  14    -0.0071648046366132
  15    -0.1244509686133367
  16     1.0380224019346953
  17    -1.4588775554652582
  18     0.0635637287480298
  19     0.0181796649153033
  20    -0.1768038897086818
  21    -0.2771710001639886
  22     0.0456162094677022
  23     0.1202988847624452
  24     0.0715983469591080
  25     0.0037041351038646
  26    -0.0261520598832644
  27     0.0020475473923687
  28    -0.0031683064485063
  29     0.1265815114818049
  30     0.1298532178935811
  31     0.0058004909347611
  32     0.0027344928607208
  33    -0.0217912303575947
  34    -0.2401014950440161
  35     0.3055407290870625
  36    -0.0023284092526421
  37     0.0011543425408435
  38    -0.0151852612793107
  39    -0.2412425133323072
  40     0.3064029578953873
  41    -0.0012729406891185
  42     0.0053938044630633
  43    -0.0142826197011084
  44     0.4801482173559308
  45     0.1506238022674683
  46    -0.0107816080383984
  47    -0.0042699050203177
  48     0.0362938657169354
 Ene=    0.641815
 Spin=  Alpha
 Occup=    0.000000
   1    -0.0291471730058381
   2     0.1918897472118598
   3     1.0455638394197579
   4    -0.2583083142658082
   5     0.0342191832473021
   6     0.1515921182693384
   7     0.9237432506186789
   8    -0.3527732573845126
   9     0.6706454822116993
  10     0.0410263863802081
  11     0.0071754865592171
  12     0.0019755180499781
  13    -0.0784954914763503
  14     0.0407714664761347
  15    -0.0496092176832486
  16     0.4050691671482936
  17    -1.2719036171470171
  18    -0.0331032755559097
  19     0.0341032598107624
  20    -0.1371406991589214
  21    -0.5424852310293933
  22    -0.0756635005244265
  23     1.0897413685606279
  24     0.0087481217855485
  25    -0.0454290560975012
  26     0.0107202311103953
  27    -0.0072000443123070
  28     0.0137272945755098
  29    -0.8002907891763447
  30     0.1941011439525089
  31    -0.0003793572157935
  32     0.0017009286876887
  33    -0.0070193011868715
  34     0.3387035889735380
  35    -0.0147682942678161
  36     0.0468569489562994
  37     0.0172729860056921
  38     0.0005400440935258
  39     0.3452595281196306
  40    -0.0155211711915567
  41     0.0333854245891691
  42    -0.0354057087055679
  43    -0.0096241680723889
  44    -0.2698811226872401
  45     0.0014792328547677
  46    -0.0366554454146317
  47     0.0071177893496798
  48     0.0096168477281112
 Ene=    0.662090
 Spin=  Alpha
 Occup=    0.000000
   1     0.0000674708588326
   2    -0.0007731199213792
   3    -0.0030561708090872
   4    -0.0562929948090237
   5    -0.2298885114529463
   6    -0.0443201251728871
   7     0.3547048790264641
   8     1.4427969893898309
   9     0.2730028235031112
  10     0.0203510471184888
  11     0.0291945001263369
  12     0.0560083992401642
  13     0.0483241522675157
  14     0.0647474985302817
  15     0.0001093094042851
  16    -0.0007812282302677
  17     0.0036013922479505
  18    -0.0326092557789130
  19    -0.1319817033620753
  20    -0.0245888144894900
  21    -0.1109298866089467
  22    -0.4537817741401958
  23    -0.0911272267908934
  24    -0.0079848790373516
  25    -0.0024534577309902
  26    -0.0241819273335366
  27     0.0041045052547460
  28     0.0174731389773574
  29     0.0033990142377973
  30    -0.0003821263303627
  31     0.0163798058482883
  32     0.0656900106583784
  33     0.0125716257214547
  34    -0.7753464869023876
  35     0.0035166837797911
  36     0.0359459030539200
  37     0.0044397598318917
  38     0.0102713450441858
  39     0.7711212847420105
  40    -0.0034221589039032
  41    -0.0292971759831880
  42     0.0239126455723492
  43    -0.0048440542661678
  44     0.0012485441449624
  45     0.0002493467905951
  46    -0.0100427849573916
  47    -0.0410748313802319
  48    -0.0078837496340490
 Ene=    0.723040
 Spin=  Alpha
 Occup=    0.000000
   1    -0.0468086382628776
   2     0.2536013577424918
   3     0.1684329403014323
   4    -0.0688645080391788
   5    -0.0167149421754156
   6     0.1771026371235213
   7    -0.0265064393705270
   8     0.0784512681993242
   9    -0.3760252858314164
  10     0.0322295496322894
  11     0.0176016396566897
  12    -0.0177695433825702
  13     0.0086914605911205
  14    -0.0091673940626712
  15     0.1551244114618543
  16    -0.8505331579131543
  17     1.4618244826241453
  18     0.7550152685606348
  19    -0.1482967329622862
  20    -0.2005908224026727
  21    -0.6749566100386168
  22     0.0158943344952139
  23     0.7886197479038004
  24     0.0169796859777021
  25    -0.0266435846991281
  26    -0.0027405585936275
  27     0.0176644871062012
  28    -0.0040301242237417
  29    -0.0331334467672571
  30     0.1659465235700565
  31    -0.0031322720979434
  32     0.0031701678363759
  33    -0.0125656440329265
  34    -0.1841913486954834
  35    -0.1301253664637465
  36    -0.0207498550537826
  37    -0.0180970552578902
  38     0.0008812910009304
  39    -0.1841519818178194
  40    -0.1311069182068356
  41    -0.0102799724271010
  42     0.0238955838320203
  43     0.0089731339006037
  44    -0.1096669091184893
  45    -0.7470513533966731
  46     0.0160599745097884
  47    -0.0074366463448786
  48     0.0180129542218400
 Ene=    0.780292
 Spin=  Alpha
 Occup=    0.000000
   1    -0.0000591161360939
   2     0.0005156839740123
   3    -0.0019093188996858
   4    -0.0067876668178587
   5    -0.0278861593527499
   6    -0.0054247993305174
   7     0.0628481580185852
   8     0.2548061450724484
   9     0.0485972599837294
  10     0.0160852477242300
  11     0.0102332255492272
  12     0.0471881182271632
  13     0.0047216333346921
  14    -0.0110132898475726
  15    -0.0000086875169519
  16    -0.0000050787888116
  17     0.0006878348691945
  18     0.2555142093083978
  19     1.0334924492660718
  20     0.1977609770445886
  21    -0.2676315070060896
  22    -1.0828997263272124
  23    -0.2076727405834302
  24    -0.0081691216867192
  25    -0.0024717956221939
  26    -0.0246439855920310
  27     0.0046558205965446
  28     0.0189569325739482
  29     0.0003174074310151
  30    -0.0000527906986092
  31    -0.0017355774686449
  32    -0.0068084710634330
  33    -0.0012386703095622
  34    -0.0851091803856812
  35     0.1872388347282528
  36     0.0072468503979466
  37    -0.0031035673145590
  38    -0.0286344615576707
  39     0.0851199775510023
  40    -0.1864326402602646
  41    -0.0102650907249373
  42    -0.0092448240825062
  43     0.0262060278026136
  44    -0.0000081459635381
  45     0.0000980171083080
  46     0.0070075837874574
  47     0.0283511762959484
  48     0.0054196597186367
 Ene=    0.837541
 Spin=  Alpha
 Occup=    0.000000
   1    -0.2051032685444869
   2     1.1943311388692759
   3    -3.3527619684640593
   4    -0.1193316276349362
   5     0.0039057162472343
   6     0.1402972497748030
   7     0.1363082978551314
   8     0.1225951030638059
   9    -0.8287563581133314
  10    -0.0178184395915699