[Molden Format]
[Atoms] Angs
 c       1                    6  1.050140721887e-02  8.010079885654e-02 -4.305087913715e-01
 c       2                    6 -3.859426081295e-01 -8.445045235247e-02  9.417585799899e-01
 h       3                    1  1.091603521712e+00 -1.783936554735e-01 -4.826225914976e-01
 h       4                    1 -8.166846788024e-02  1.112192744037e+00 -8.184886349754e-01
 h       5                    1 -5.045873617892e-01 -5.899204397230e-01 -1.144643333870e+00
 h       6                    1 -2.140923765780e-01 -3.259970278651e-01  1.979202218633e+00
[GTO]
1
 s           5
      1.238401693800e+03      5.517365048110e-03
      1.862900499200e+02      4.108882855595e-02
      4.225117634600e+01      1.822538212649e-01
      1.167655793200e+01      4.682845943743e-01
      3.593050648200e+00      4.457581733600e-01
 s           1
      4.024514736300e-01      1.000000000000e+00
 s           1
      1.309018266800e-01      1.000000000000e+00
 p           3
      9.468097062100e+00      5.688833201104e-02
      2.010354514200e+00      3.129405933647e-01
      5.477100470700e-01      7.606501650914e-01
 p           1
      1.526861379500e-01      1.000000000000e+00
 d           1
      8.000000000000e-01      1.000000000000e+00

2
 s           5
      1.238401693800e+03      5.517365048110e-03
      1.862900499200e+02      4.108882855595e-02
      4.225117634600e+01      1.822538212649e-01
      1.167655793200e+01      4.682845943743e-01
      3.593050648200e+00      4.457581733600e-01
 s           1
      4.024514736300e-01      1.000000000000e+00
 s           1
      1.309018266800e-01      1.000000000000e+00
 p           3
      9.468097062100e+00      5.688833201104e-02
      2.010354514200e+00      3.129405933647e-01
      5.477100470700e-01      7.606501650914e-01
 p           1
      1.526861379500e-01      1.000000000000e+00
 d           1
      8.000000000000e-01      1.000000000000e+00

3
 s           3
      1.301070100000e+01      3.348548481299e-02
      1.962257200000e+00      2.347218708812e-01
      4.445379600000e-01      8.137702852596e-01
 s           1
      1.219496200000e-01      1.000000000000e+00
 p           1
      8.000000000000e-01      1.000000000000e+00

4
 s           3
      1.301070100000e+01      3.348548481299e-02
      1.962257200000e+00      2.347218708812e-01
      4.445379600000e-01      8.137702852596e-01
 s           1
      1.219496200000e-01      1.000000000000e+00
 p           1
      8.000000000000e-01      1.000000000000e+00

5
 s           3
      1.301070100000e+01      3.348548481299e-02
      1.962257200000e+00      2.347218708812e-01
      4.445379600000e-01      8.137702852596e-01
 s           1
      1.219496200000e-01      1.000000000000e+00
 p           1
      8.000000000000e-01      1.000000000000e+00

6
 s           3
      1.301070100000e+01      3.348548481299e-02
      1.962257200000e+00      2.347218708812e-01
      4.445379600000e-01      8.137702852596e-01
 s           1
      1.219496200000e-01      1.000000000000e+00
 p           1
      8.000000000000e-01      1.000000000000e+00


