[Molden Format]
[Atoms] Angs
 c       1                    6  7.195000000000e-01  0.000000000000e+00 -1.000000000000e-03
 c       2                    6 -6.379000000000e-01 -1.000000000000e-04 -1.900000000000e-03
 h       3                    1  1.278300000000e+00  8.538000000000e-01  4.004000000000e-01
 h       4                    1  1.279100000000e+00 -8.537000000000e-01 -4.017000000000e-01
 h       5                    1 -1.263900000000e+00 -8.395000000000e-01  3.841000000000e-01
 h       6                    1 -1.262700000000e+00  8.396000000000e-01 -3.891000000000e-01
[GTO]
1
 s           5
      1.238401693800e+03      5.517365048110e-03
      1.862900499200e+02      4.108882855595e-02
      4.225117634600e+01      1.822538212649e-01
      1.167655793200e+01      4.682845943743e-01
      3.593050648200e+00      4.457581733600e-01
 s           1
      4.024514736300e-01      1.000000000000e+00
 s           1
      1.309018266800e-01      1.000000000000e+00
 p           3
      9.468097062100e+00      5.688833201104e-02
      2.010354514200e+00      3.129405933647e-01
      5.477100470700e-01      7.606501650914e-01
 p           1
      1.526861379500e-01      1.000000000000e+00
 d           1
      8.000000000000e-01      1.000000000000e+00

2
 s           5
      1.238401693800e+03      5.517365048110e-03
      1.862900499200e+02      4.108882855595e-02
      4.225117634600e+01      1.822538212649e-01
      1.167655793200e+01      4.682845943743e-01
      3.593050648200e+00      4.457581733600e-01
 s           1
      4.024514736300e-01      1.000000000000e+00
 s           1
      1.309018266800e-01      1.000000000000e+00
 p           3
      9.468097062100e+00      5.688833201104e-02
      2.010354514200e+00      3.129405933647e-01
      5.477100470700e-01      7.606501650914e-01
 p           1
      1.526861379500e-01      1.000000000000e+00
 d           1
      8.000000000000e-01      1.000000000000e+00

3
 s           3
      1.301070100000e+01      3.348548481299e-02
      1.962257200000e+00      2.347218708812e-01
      4.445379600000e-01      8.137702852596e-01
 s           1
      1.219496200000e-01      1.000000000000e+00
 p           1
      8.000000000000e-01      1.000000000000e+00

4
 s           3
      1.301070100000e+01      3.348548481299e-02
      1.962257200000e+00      2.347218708812e-01
      4.445379600000e-01      8.137702852596e-01
 s           1
      1.219496200000e-01      1.000000000000e+00
 p           1
      8.000000000000e-01      1.000000000000e+00

5
 s           3
      1.301070100000e+01      3.348548481299e-02
      1.962257200000e+00      2.347218708812e-01
      4.445379600000e-01      8.137702852596e-01
 s           1
      1.219496200000e-01      1.000000000000e+00
 p           1
      8.000000000000e-01      1.000000000000e+00

6
 s           3
      1.301070100000e+01      3.348548481299e-02
      1.962257200000e+00      2.347218708812e-01
      4.445379600000e-01      8.137702852596e-01
 s           1
      1.219496200000e-01      1.000000000000e+00
 p           1
      8.000000000000e-01      1.000000000000e+00


[5D]
[7F]
[9G]
[MO]
 Ene=  -11.265143
 Spin=  Alpha
 Occup=    2.000000
   1    -0.0258307638326691
   2     0.0016420535709256
   3    -0.0058224753707464
   4    -0.0014488086147007
   5     0.0000000241662856
   6    -0.0000009691091018
   7     0.0020288915371072
   8     0.0000008397390050
   9     0.0000014113735942
  10    -0.0004853757068070
  11     0.0000007793641092
  12     0.0001435098345563
  13     0.0002266902096841
  14    -0.0000003821236105
  15    -0.9906135865049481
  16    -0.0349057069809494
  17     0.0227405716392710
  18     0.0004875787566303
  19    -0.0000004012621746
  20     0.0000008018467648
  21     0.0007867057844645
  22     0.0000008753357804
  23    -0.0000003798380773
  24     0.0013005567814019
  25    -0.0000016765265545
  26     0.0009697451710789
  27    -0.0005438418473432
  28    -0.0000017825078963
  29    -0.0001946501037422
  30    -0.0002999443977536
  31     0.0004650294032165
  32     0.0001633912203468
  33     0.0000811835713544
  34    -0.0001942971858300
  35    -0.0002996454765467
  36     0.0004650559587265
  37    -0.0001633648280064
  38    -0.0000805935599592
  39     0.0022036247547202
  40    -0.0047961441699775
  41     0.0006612008042723
  42     0.0012043529737832
  43    -0.0005521814549703
  44     0.0022025543553183
  45    -0.0047967173938838
  46     0.0006593795367546
  47    -0.0012038938786153
  48     0.0005532420220105
 Ene=  -11.239120
 Spin=  Alpha
 Occup=    2.000000
   1    -0.9905243431944434
   2    -0.0354910015209632
   3     0.0237447011860516
   4    -0.0001726459337310
   5    -0.0000002550947143
   6    -0.0000001209126069
   7    -0.0010160068641691
   8    -0.0000009370754627
   9    -0.0000005690105074
  10     0.0012295248549512
  11    -0.0000015458057883
  12    -0.0010749012436420
  13    -0.0002987356257318
  14     0.0000008703875264
  15     0.0256232951726866
  16     0.0033663871397639
  17    -0.0074717593544792
  18     0.0014223731828784
  19     0.0000002667391948
  20     0.0000008187796621
  21    -0.0018995241727671
  22     0.0000026402319592
  23    -0.0000023252095787
  24    -0.0005328573493263
  25     0.0000009231499938
  26    -0.0001079467494091
  27     0.0003125871974042
  28     0.0000001072020275
  29     0.0023363376969709
  30    -0.0050993032405880
  31    -0.0006623231758876
  32    -0.0011450748131107
  33    -0.0005357466039303
  34     0.0023358046827908
  35    -0.0050992325777483
  36    -0.0006634817274875
  37     0.0011452221568764
  38     0.0005349853427034
  39    -0.0001975785794809
  40     0.0001773883775103
  41    -0.0004516784773770
  42    -0.0001555032213829
  43     0.0000751822949737
  44    -0.0001989892006424
  45     0.0001735858593825
  46    -0.0004523560625697
  47     0.0001558793338558
  48    -0.0000760110629122
 Ene=   -1.015314
 Spin=  Alpha
 Occup=    2.000000
   1     0.1975111240526709
   2    -0.3792615468472201
   3    -0.1162793672239042
   4     0.1199478102527581
   5    -0.0000038768595338
   6     0.0000773813441996
   7     0.0213798586499245
   8     0.0000025596591800
   9     0.0000163589479022
  10     0.0099161290731198
  11    -0.0000207860364548
  12    -0.0021787966048360
  13    -0.0141998038488603
  14     0.0000000374012850
  15     0.2014418190402200
  16    -0.3949495150615584
  17    -0.1212814365699784
  18    -0.1195489178771685
  19    -0.0000329532039266
  20    -0.0000697863780704
  21    -0.0231683699158831
  22    -0.0000054362968508
  23    -0.0000199814097512
  24     0.0106033925921647
  25    -0.0000221164363817
  26     0.0020292227674362
  27    -0.0146254155607735
  28    -0.0000049178690005
  29    -0.1044514374766399
  30    -0.0102200886866307
  31     0.0090491425458475
  32     0.0115731209633298
  33     0.0054977781071770
  34    -0.1044252345209244
  35    -0.0102177308199739
  36     0.0090562444902555
  37    -0.0115680677207907
  38    -0.0054846372407576
  39    -0.1028370031549312
  40    -0.0110957457657054
  41    -0.0090050274783591
  42    -0.0107214871868089
  43     0.0050775547059637
  44    -0.1028891202708158
  45    -0.0111004766735031
  46    -0.0089959004229499
  47     0.0107313222222947
  48    -0.0050971242051116
 Ene=   -0.782855
 Spin=  Alpha
 Occup=    2.000000
   1     0.1538486306122516
   2    -0.3068932764747120
   3    -0.1356457979410703
   4    -0.1387132458777624
   5    -0.0000233399777578
   6    -0.0001091651284988
   7    -0.0526077728727468
   8     0.0000047898283459
   9    -0.0000414374386159
  10     0.0017468276938153
  11     0.0000056336850986
  12    -0.0069858621375061
  13     0.0083872490450885
  14     0.0000038118447572
  15    -0.1510781921912614
  16     0.3071472298090324
  17     0.1370715040010458
  18    -0.1773499143456247
  19     0.0000027517437230
  20    -0.0001468550419951
  21    -0.0647579697379468
  22    -0.0000122398408468
  23    -0.0000481509108010
  24    -0.0020379671134808
  25    -0.0000047814954750
  26    -0.0070240335080803
  27    -0.0087872354801589
  28     0.0000078828415286
  29    -0.1843293212202441
  30    -0.0352307830673681
  31     0.0069741107617083
  32     0.0150532641278262
  33     0.0074560859223306
  34    -0.1843004130332754
  35    -0.0352227830165396
  36     0.0069870238539039
  37    -0.0150499160319697
  38    -0.0074467869208814
  39     0.1960675816101443
  40     0.0383315549221731
  41     0.0078692994763857
  42     0.0155266603461064
  43    -0.0075324910402392
  44     0.1960196822896993
  45     0.0383293269985986
  46     0.0078425337812044
  47    -0.0155273275678359
  48     0.0075467760912135
 Ene=   -0.615718
 Spin=  Alpha
 Occup=    2.000000
   1    -0.0000246055156773
   2     0.0000542427236081
   3     0.0000441346959172
   4     0.0002394839029319
   5    -0.3040373422675771
   6    -0.0845781274667356
   7     0.0000985090801670
   8    -0.1252772227704320
   9    -0.0290016382676196
  10    -0.0000051034798983
  11    -0.0062983797512888
  12     0.0000032784173258
  13    -0.0000004080538619
  14     0.0003853456689849
  15    -0.0000106213289104
  16     0.0000198050900971
  17     0.0000576770480487
  18    -0.0002062966402251
  19    -0.3113303362821299
  20     0.0584557334883720
  21    -0.0000612876312307
  22    -0.1448909277146367
  23     0.0108413823128169
  24    -0.0000116474235943
  25    -0.0087655253328842
  26     0.0000059375320929
  27     0.0000133242475562
  28     0.0007611048749260
  29    -0.2076657733549029
  30    -0.0551823259986115
  31     0.0097827357916358
  32     0.0080243376302261
  33     0.0054356812463112
  34     0.2078322364831247
  35     0.0552343583686282
  36    -0.0097940159525348
  37     0.0080335294203323
  38     0.0054282955984407
  39     0.2017719201738374
  40     0.0562604162044933
  41     0.0097845805060595
  42     0.0071128289523051
  43    -0.0053949771073095
  44    -0.2016873913608474
  45    -0.0562401834903422
  46    -0.0097697184784411
  47     0.0071098559988341
  48    -0.0054106487254818
 Ene=   -0.590344
 Spin=  Alpha
 Occup=    2.000000
   1     0.0012021701524483
   2    -0.0131630036407633
   3     0.0497376691828401
   4     0.4055593669028212
   5     0.0002868962432508
   6     0.0003778069520420
   7     0.1438926753296732
   8     0.0001147551851563
   9     0.0001398895361070
  10     0.0029057941374900
  11    -0.0000142297239168
  12     0.0068278391887437
  13    -0.0196025389884032
  14    -0.0000018238951843
  15     0.0208239085679412
  16    -0.0554491910025631
  17     0.0176503712623034
  18    -0.4018187271625445
  19     0.0000402244245734
  20    -0.0002346773173730
  21    -0.1477518744588606
  22     0.0000309058176624
  23    -0.0000745291710197
  24     0.0021224174406450
  25    -0.0000091788498249
  26    -0.0055543552902742
  27    -0.0166310205834543
  28     0.0000174828819946
  29     0.1770872212753206
  30     0.0575630642377105
  31     0.0008268612598681
  32    -0.0114586891828108
  33    -0.0056028050466308
  34     0.1767165766299604
  35     0.0574515070743564
  36     0.0008319693699534
  37     0.0114454011436480
  38     0.0055970857570601
  39     0.1616965179370469
  40     0.0523351458926878
  41    -0.0001301347817998
  42     0.0105790614274705
  43    -0.0050552653379235
  44     0.1615677111496095
  45     0.0522937327434422
  46    -0.0001561870528265
  47    -0.0105715875774074
  48     0.0050571094754513
 Ene=   -0.537113
 Spin=  Alpha
 Occup=    2.000000
   1     0.0000106307428428
   2    -0.0000309866632570
   3     0.0000557212885405
   4     0.0003830912150209
   5    -0.1797112437193981
   6    -0.2608505707963402
   7     0.0001664859157143
   8    -0.0690828826948885
   9    -0.1487203917740132
  10     0.0000102880316715
  11     0.0084020912475328
  12    -0.0000106748840335
  13    -0.0000089903532336
  14    -0.0180308752638115
  15     0.0000270937255166
  16    -0.0000638673903627
  17    -0.0000602719667668
  18     0.0000215042792154
  19     0.2021219113414173
  20    -0.2546388394715691
  21     0.0000209049891545
  22     0.0851590101185498
  23    -0.1404995588817925
  24    -0.0000041365603946
  25    -0.0081868795300469
  26    -0.0000247828331236
  27    -0.0000129784957818
  28    -0.0191792266214875
  29    -0.2080670662892763
  30    -0.0742917719093156
  31     0.0089821546089817
  32     0.0093259093410778
  33    -0.0001407706139762
  34     0.2082110262417895
  35     0.0743424502495802
  36    -0.0089815046982905
  37     0.0093337180446127
  38    -0.0001470206055268
  39    -0.2140108417292739
  40    -0.0772499417400198
  41    -0.0100001319956320
  42    -0.0086891518750088
  43     0.0005486238351409
  44     0.2142029982474981
  45     0.0773186226556368
  46     0.0099927975175227
  47    -0.0087060465221022
  48     0.0005730995111101
 Ene=    0.000000
 Spin=  Alpha
 Occup=    1.461256
   1    -0.0000194367044769
   2     0.0000438081773032
   3     0.0000189772633065
   4     0.0001053251958512
   5     0.2599987426860289
   6    -0.3039471006059504
   7     0.0001672008805118
   8     0.2004557606949376
   9    -0.3183528105296904
  10     0.0000315643885602
  11     0.0273791932161064
  12     0.0000125564336746
  13    -0.0000210455320003
  14     0.0164624454400036
  15     0.0000084035600473
  16    -0.0000134808185532
  17    -0.0000495702292837
  18     0.0002303263503455
  19    -0.2039153069861487
  20    -0.2356267252736592
  21     0.0002279166764944
  22    -0.1402069794057192
  23    -0.2307902708270269
  24    -0.0000378761905952
  25    -0.0311770122960402
  26     0.0000191103890086
  27     0.0000332446094525
  28     0.0233139293391221
  29     0.1371243954763637
  30     0.0916372700738455
  31    -0.0018884895390922
  32     0.0017228369537931
  33    -0.0136007412830313
  34    -0.1371544309246480
  35    -0.0916866567826581
  36     0.0019044700969069
  37     0.0017210653787040
  38    -0.0135981998999622
  39     0.1535976119251797
  40     0.1300970615080283
  41     0.0019668845816939
  42    -0.0002979145104444
  43    -0.0097927611349204
  44    -0.1536513522636729
  45    -0.1301050798405658
  46    -0.0019424431094115
  47    -0.0002901551019793
  48    -0.0098040873996636
 Ene=    0.000000
 Spin=  Alpha
 Occup=    0.538744
   1     0.0000054390893882
   2    -0.0000133066846419
   3    -0.0000093020437128
   4    -0.0001476068184653
   5    -0.1105297219329854
   6     0.2880463973350996
   7    -0.0002371265494012
   8    -0.2428614900907479
   9     0.4349016896603393
  10     0.0000274600576316
  11     0.0234577080834946
  12     0.0000240565611204
  13    -0.0000238247910469
  14     0.0347202870320888
  15     0.0000007074085273
  16    -0.0000187327035333
  17     0.0001110258204099
  18     0.0002216103930083
  19    -0.1806275508425336
  20    -0.3576739014003979
  21     0.0002718088761998
  22    -0.3331294804062536
  23    -0.4789842389307417
  24     0.0000338092740634
  25     0.0221968648029451
  26    -0.0000264791742049
  27    -0.0000206880607444
  28    -0.0315785968571474
  29     0.1338784677203206
  30     0.1749249622072147
  31     0.0045194679529052
  32    -0.0097543074691107
  33     0.0119116720720323
  34    -0.1338823149691070
  35    -0.1749271809249373
  36    -0.0045297515274025
  37    -0.0097563550305787
  38     0.0119053779397039
  39    -0.1196167607375087
  40    -0.2074417089854673
  41     0.0034597683640318
  42    -0.0097491812512631
  43    -0.0140978370344523
  44     0.1196284139271146
  45     0.2073533285288661
  46    -0.0034501562542396
  47    -0.0097575357612150
  48    -0.0140963200414645
 Ene=    0.207608
 Spin=  Alpha
 Occup=    0.000000
   1     0.0494985754202407
   2    -0.0939539565698173
   3    -1.1157046320277060
   4    -0.1123138559539785
   5    -0.0000477653326450
   6    -0.0000696254439676
   7    -0.4366065248243051
   8    -0.0002632381035591
   9    -0.0003861083404555
  10     0.0026155919511730
  11    -0.0000076355656296
  12    -0.0061971833063513
  13    -0.0047275457978076
  14     0.0000010598731423
  15     0.0968425262243979
  16    -0.1596706064491776
  17    -1.9266680432589700
  18     0.1548641544213838
  19    -0.0000594809542407
  20     0.0001442364005828
  21     0.6752796651201176
  22    -0.0002482155290115
  23     0.0007248382910792
  24     0.0030799540148884
  25    -0.0000054727131948
  26     0.0053909515853314
  27    -0.0025927035300960
  28    -0.0000067004919353
  29    -0.0114621166260558
  30     0.8208371127509828
  31    -0.0044108421945345
  32    -0.0011007989115999
  33    -0.0035785076583793
  34    -0.0114705135482025
  35     0.8203379114845231
  36    -0.0044084771796172
  37     0.0010974511963893
  38     0.0035697143619497
  39     0.0011243908203128
  40     1.3789753260227071
  41     0.0034515884024776
  42     0.0035090179117406
  43    -0.0035030795598889
  44     0.0011488548764727
  45     1.3792521398232593
  46     0.0034433721952310
  47    -0.0035132363780256
  48     0.0035097744253388
 Ene=    0.224601
 Spin=  Alpha
 Occup=    0.000000
   1     0.1099162165099997
   2    -0.1430149294868425
   3    -2.4365334953087694
   4    -0.1017297083328531
   5    -0.0000027902087549
   6    -0.0001191256335460
   7    -0.3535488019744638
   8     0.0000580396696728
   9    -0.0004167503100468
  10     0.0023773118678274
  11    -0.0000021013800949
  12    -0.0000811397400419
  13     0.0042378142441466
  14     0.0000095884645227
  15    -0.0692266084107514
  16     0.0696596664828406
  17     1.6204052752364428
  18    -0.0494940516529701
  19    -0.0001039163689345
  20     0.0000201016453360
  21    -0.1027188851362357
  22    -0.0004255252427338
  23     0.0001069621135345
  24    -0.0001295750880548
  25    -0.0000091622830566
  26     0.0039955369014591
  27    -0.0075966444814810
  28    -0.0000007081282995
  29     0.0214756114262065
  30     1.4297904591021249
  31    -0.0025212662585538
  32    -0.0041035787294008
  33     0.0001278312714099
  34     0.0214618946308548
  35     1.4295085630351934
  36    -0.0025262402429608
  37     0.0041042530335995
  38    -0.0001345736217775
  39    -0.0294000249596731
  40    -0.8437219430526943
  41     0.0008373799707181
  42    -0.0038118130283647
  43    -0.0018376890889885
  44    -0.0293957277903264
  45    -0.8423765724551660
  46     0.0008435838545876
  47     0.0038088533705664
  48     0.0018466079531301
 Ene=    0.244395
 Spin=  Alpha
 Occup=    0.000000
   1    -0.0000338033000909
   2     0.0000269353988462
   3     0.0015198937502698
   4     0.0002109536220598
   5    -0.1665651609631404
   6    -0.1327192140078688
   7     0.0005780098151267
   8    -0.6214302121334749
   9    -0.6652268563312136
  10    -0.0000087186129612
  11    -0.0078938373729061
  12     0.0000009396003608
  13     0.0000025685738432
  14     0.0081439781753475
  15    -0.0000038496048425
  16     0.0000542400834516
  17    -0.0006205787206070
  18    -0.0001476075098128
  19    -0.1997217274362914
  20     0.1372481200892103
  21    -0.0009877093293446
  22    -0.6699745310896311
  23     0.6550288910403144
  24    -0.0000046945537621
  25    -0.0081213023916757
  26    -0.0000013832549421
  27     0.0000072814850087
  28    -0.0063046149614664
  29     0.0014059210354148
  30     1.1489125595219065
  31    -0.0047340528670866
  32    -0.0036162937700379
  33    -0.0048688339564790
  34    -0.0014570136134300
  35    -1.1502969556383713
  36     0.0047483040465548
  37    -0.0036180727141861
  38    -0.0048589403107016
  39     0.0002115473648295
  40    -1.1994029003185602
  41    -0.0045549043602849
  42    -0.0033180174321305
  43     0.0044920717596661
  44    -0.0002253045076150
  45     1.1995897752929134
  46     0.0045620598291527
  47    -0.0033195703261680
  48     0.0044927608721980
 Ene=    0.286769
 Spin=  Alpha
 Occup=    0.000000
   1     0.0000071547759773
   2     0.0000340645962187
   3    -0.0016090691988086
   4     0.0000276336029720
   5    -0.1890147654874578
   6    -0.0946925453870200
   7     0.0006578024889651
   8    -1.3916106482713719
   9    -0.3637230718730977
  10     0.0000047275852547
  11     0.0017849144477164
  12    -0.0000085630284894
  13     0.0000083150225811
  14    -0.0165033302704617
  15    -0.0000096282675832
  16    -0.0000224047636926
  17     0.0011592226190227
  18     0.0000969192751725
  19     0.1739177777874197
  20    -0.1126187057078355
  21     0.0008253389644168
  22     1.2750489243583092
  23    -0.3216938049845481
  24    -0.0000048300939890
  25    -0.0009554966912209
  26    -0.0000146279229831
  27    -0.0000007513582299
  28    -0.0157390324086707
  29    -0.0258839046707842
  30     1.5297598720424519
  31    -0.0114630904757403
  32    -0.0069937719215544
  33    -0.0032905954971378
  34     0.0259141303219620
  35    -1.5287748389445872
  36     0.0114616799877641
  37    -0.0069863846318138
  38    -0.0032808670811918
  39    -0.0218902580570618
  40     1.3886595776159363
  41     0.0106323501746405
  42     0.0051827288910528
  43    -0.0036019148358929
  44     0.0218657697063814
  45    -1.3891452783527232
  46    -0.0106384671205552
  47     0.0051803941566738
  48    -0.0036151365421901
 Ene=    0.471859
 Spin=  Alpha
 Occup=    0.000000
   1    -0.0694887445472671
   2     0.1342009047398087
   3     4.7440001432010233
   4    -0.1632012276533678
   5    -0.0000592928578885
   6    -0.0000631005778223
   7    -3.3647932012442383
   8    -0.0003698019244100
   9    -0.0020902451547326
  10    -0.0003258412399692
  11    -0.0000085485030566
  12     0.0157125404344280
  13    -0.0196767411926336
  14    -0.0000333074358586
  15     0.0689046599207525
  16    -0.1094510312116252
  17    -4.8065407996057861
  18    -0.1529741577252495
  19     0.0000219402918195
  20    -0.0001537933671923
  21    -3.3353952088990120
  22    -0.0000519986096753
  23    -0.0023801728610756
  24    -0.0047117923059394
  25     0.0000117732104543
  26     0.0110195534909032
  27     0.0189548549879814
  28     0.0000186702787900
  29     0.1256526544371883
  30     0.2181966208698493
  31    -0.0078393183558129
  32     0.0050597623788438
  33     0.0032598674115313
  34     0.1257729359855199
  35     0.2181096071242185
  36    -0.0078239572358840
  37    -0.0050685995861498
  38    -0.0032569326696085
  39    -0.0742742004064052
  40    -0.2439915249417346
  41    -0.0108926007842407
  42     0.0034946718221520
  43    -0.0024693526112755
  44    -0.0748114531438396
  45    -0.2429919952228564
  46    -0.0108371520177057
  47    -0.0034814955505579
  48     0.0024421719217136
 Ene=    0.565437
 Spin=  Alpha
 Occup=    0.000000
   1    -0.0896817203906815
   2     0.7632532111747961
   3    -0.5483701623557705
   4    -0.3857889341543748
   5    -0.0001392498593417
   6    -0.0001220545939689
   7     0.6308584125864051
   8     0.0001698672648247
   9     0.0008050178877512
  10    -0.0304745007386571
  11     0.0000580359563139
  12     0.0039854009432700
  13     0.0421697962539365
  14    -0.0000421067241853
  15    -0.1015495227269270
  16     0.8742003541016079
  17    -0.9862961109946914
  18     0.3740239843983870
  19    -0.0001611570678753
  20     0.0002802365788454
  21    -0.7615009438970139
  22     0.0004022022999282
  23    -0.0009674524246596
  24    -0.0330826387758226
  25     0.0000582548800331
  26    -0.0075633861759796
  27     0.0425232482449692
  28     0.0000831639114711
  29    -0.0543292157186114
  30     0.2281179151241229
  31     0.0333315854563909
  32    -0.0022478393372486
  33    -0.0022527363754324
  34    -0.0537293335470387
  35     0.2279363123518261
  36     0.0333979669709851
  37     0.0022483913759615
  38     0.0023299866035978
  39     0.0098121263081336
  40     0.1777906452815012
  41    -0.0355509250236236
  42     0.0037757135936197
  43    -0.0029402988547244
  44     0.0086400332275112
  45     0.1789965638390407
  46    -0.0354576154128589
  47    -0.0037654308550828
  48     0.0028648992550575
 Ene=    0.649736
 Spin=  Alpha
 Occup=    0.000000
   1    -0.0616044927111310
   2     0.6573139893739847
   3    -2.7124663920964003
   4     0.1450850864146108
   5    -0.0003551460712783
   6     0.0004845711817950
   7    -0.4161673750565712
   8     0.0012097877139615
   9     0.0008004116622646
  10    -0.0450607246918693
  11     0.0000019817798562
  12     0.0456925923129445
  13    -0.0319279243744008
  14    -0.0002567854162685
  15    -0.0625585040247057
  16     0.5200077594489005
  17    -0.8561475483707521
  18    -0.0960463882324731
  19    -0.0001541601512098
  20    -0.0001148321244923
  21     1.2417791251401809
  22     0.0007988416730871
  23    -0.0003346166568161
  24    -0.0396191940276771
  25     0.0000206592399608
  26    -0.0302519685253388
  27    -0.0300646393896242
  28     0.0002590955548653
  29     0.5583734906554656
  30     0.4525389442022595
  31    -0.0163645119618725
  32     0.0199738798853408
  33     0.0047151729454381
  34     0.5608063536824657
  35     0.4521118587920885
  36    -0.0161641984199749
  37    -0.0199989787737580
  38    -0.0046173891760746
  39     0.4548957423530736
  40     0.4347644692295827
  41     0.0185287008876281
  42    -0.0156627749401113
  43     0.0018472312665676
  44     0.4523769998002478
  45     0.4354247539142659
  46     0.0187122631708052
  47     0.0156425178230499
  48    -0.0018941769035355
 Ene=    0.658159
 Spin=  Alpha
 Occup=    0.000000
   1    -0.0002730854635599
   2     0.0027836555401819
   3    -0.0067041618963262
   4     0.0001586743312717
   5     0.1146980966036401
   6    -0.1022116692213327
   7    -0.0011044626810391
   8    -0.4809853572227711
   9    -0.5761139092625986
  10    -0.0001596817937280
  11     0.0059985794242991
  12     0.0002188250808475
  13    -0.0000588305241563
  14     0.0979344919715068
  15    -0.0001967978359564
  16     0.0014865222386193
  17    -0.0024268033313313
  18     0.0002307597363789
  19     0.0710570708600388
  20     0.0509138536776915
  21    -0.0000731943304809
  22    -0.5044393096995460
  23     0.6118077524681007
  24    -0.0000726509384799
  25     0.0104831064451250
  26    -0.0001258274185504
  27    -0.0000463699137590
  28    -0.1087734481233974
  29     0.5233167086568947
  30    -0.0605507419413291
  31     0.0479957617367952
  32     0.0062201130627291
  33    -0.0227732255018676
  34    -0.5201090871271459
  35     0.0635548666406890
  36    -0.0479781743039576
  37     0.0061002870583419
  38    -0.0228712298202883
  39    -0.6128708836639394
  40     0.1748876653962772
  41     0.0500772129333569
  42     0.0052229003185863
  43     0.0204547955183732
  44     0.6137589451384109
  45    -0.1731934779954215
  46    -0.0502087232576063
  47     0.0052269311439124
  48     0.0203750413738916
 Ene=    0.717490
 Spin=  Alpha
 Occup=    0.000000
   1     0.0397085510612848
   2    -0.7083635561046442
   3     3.8745639168502124
   4    -0.1718781180439079
   5    -0.0014327174408412
   6     0.0024533762801892
   7    -0.8107301035564188
   8     0.0017998997210016
   9    -0.0034461143206391
  10     0.0328547448914592
  11    -0.0002614224913857
  12    -0.0585000584916710
  13    -0.0044670949505739
  14     0.0000930045689482
  15    -0.0370743859549731
  16     0.7103397734776995
  17    -4.2457423695668632
  18    -0.2512349866973693
  19     0.0017869547553727
  20     0.0027284480161025
  21    -0.4191651936152225
  22    -0.0034775611512571
  23    -0.0018892929959557
  24    -0.0408290159208371
  25     0.0002770527725269
  26    -0.0698653824075967
  27    -0.0093783879233218
  28    -0.0000885744686713
  29    -0.4418612084498925
  30    -0.2759518016408762
  31     0.0137914071664650
  32    -0.0072376901999817
  33    -0.0093454093463577
  34    -0.4426042555499781
  35    -0.2765233941925705
  36     0.0134738352760222
  37     0.0071538299035747
  38     0.0094305031228145
  39     0.5829858982046621
  40     0.3879180212840184
  41     0.0272430514455480
  42    -0.0123901214633813
  43     0.0104573079252206
  44     0.5847151475064666
  45     0.3873368929213838
  46     0.0273748320981220
  47     0.0124641075591383
  48    -0.0102352972510525
 Ene=    0.721731
 Spin=  Alpha
 Occup=    0.000000
   1     0.0001552992474966
   2    -0.0029631654862270
   3     0.0162794921371435
   4    -0.0004139499388924
   5     0.2944098336543191
   6    -0.5851230498741942
   7    -0.0037330309457505
   8    -0.3683058857833016
   9     0.5228187314293389
  10     0.0002067181089901
  11     0.0576341992877758
  12    -0.0002475613499535
  13    -0.0000687782286191
  14     0.0083284472624557
  15    -0.0001518824542447
  16     0.0031544674720771
  17    -0.0186982687940372
  18    -0.0006231980351861
  19    -0.3342570672730998
  20    -0.6933719272355746
  21    -0.0018262052087126
  22     0.4536970492617701
  23     0.6306997697588568
  24    -0.0002652449111639
  25    -0.0547712764151029
  26    -0.0003214564527864
  27    -0.0000102747389203
  28     0.0157264133391607
  29     0.0214430545187251
  30    -0.1440954012792752
  31    -0.0179167736049229
  32     0.0114407912276724
  33    -0.0095683641160611
  34    -0.0251950156877893
  35     0.1418012558713528
  36     0.0180350250527586
  37     0.0114956116190203
  38    -0.0094498260350591
  39     0.0661062345264794
  40    -0.1195759998221598
  41     0.0115395176628638
  42    -0.0114659264676209
  43    -0.0129063336934552
  44    -0.0606261637863703
  45     0.1233346387660673
  46    -0.0112706745248338
  47    -0.0113356225935288
  48    -0.0130290195763471
 Ene=    0.786006
 Spin=  Alpha
 Occup=    0.000000
   1     0.0000063947323851
   2    -0.0000192451624793
   3    -0.0000536494418179
   4    -0.0004094322371715
   5    -0.3602184591154058
   6     0.7102907819817605
   7     0.0006981070918858
   8     0.3463676957073645
   9    -0.9823585578262026
  10     0.0000236493674400