[Molden Format]
[Atoms] Angs
 c       1                    6  7.195000000000e-01  0.000000000000e+00 -1.000000000000e-03
 c       2                    6 -6.379000000000e-01 -1.000000000000e-04 -1.900000000000e-03
 h       3                    1  1.278300000000e+00  8.538000000000e-01  4.004000000000e-01
 h       4                    1  1.279100000000e+00 -8.537000000000e-01 -4.017000000000e-01
 h       5                    1 -1.263900000000e+00 -8.395000000000e-01  3.841000000000e-01
 h       6                    1 -1.262700000000e+00  8.396000000000e-01 -3.891000000000e-01
[GTO]
1
 s           5
      1.238401693800e+03      5.517365048110e-03
      1.862900499200e+02      4.108882855595e-02
      4.225117634600e+01      1.822538212649e-01
      1.167655793200e+01      4.682845943743e-01
      3.593050648200e+00      4.457581733600e-01
 s           1
      4.024514736300e-01      1.000000000000e+00
 s           1
      1.309018266800e-01      1.000000000000e+00
 p           3
      9.468097062100e+00      5.688833201104e-02
      2.010354514200e+00      3.129405933647e-01
      5.477100470700e-01      7.606501650914e-01
 p           1
      1.526861379500e-01      1.000000000000e+00
 d           1
      8.000000000000e-01      1.000000000000e+00

2
 s           5
      1.238401693800e+03      5.517365048110e-03
      1.862900499200e+02      4.108882855595e-02
      4.225117634600e+01      1.822538212649e-01
      1.167655793200e+01      4.682845943743e-01
      3.593050648200e+00      4.457581733600e-01
 s           1
      4.024514736300e-01      1.000000000000e+00
 s           1
      1.309018266800e-01      1.000000000000e+00
 p           3
      9.468097062100e+00      5.688833201104e-02
      2.010354514200e+00      3.129405933647e-01
      5.477100470700e-01      7.606501650914e-01
 p           1
      1.526861379500e-01      1.000000000000e+00
 d           1
      8.000000000000e-01      1.000000000000e+00

3
 s           3
      1.301070100000e+01      3.348548481299e-02
      1.962257200000e+00      2.347218708812e-01
      4.445379600000e-01      8.137702852596e-01
 s           1
      1.219496200000e-01      1.000000000000e+00
 p           1
      8.000000000000e-01      1.000000000000e+00

4
 s           3
      1.301070100000e+01      3.348548481299e-02
      1.962257200000e+00      2.347218708812e-01
      4.445379600000e-01      8.137702852596e-01
 s           1
      1.219496200000e-01      1.000000000000e+00
 p           1
      8.000000000000e-01      1.000000000000e+00

5
 s           3
      1.301070100000e+01      3.348548481299e-02
      1.962257200000e+00      2.347218708812e-01
      4.445379600000e-01      8.137702852596e-01
 s           1
      1.219496200000e-01      1.000000000000e+00
 p           1
      8.000000000000e-01      1.000000000000e+00

6
 s           3
      1.301070100000e+01      3.348548481299e-02
      1.962257200000e+00      2.347218708812e-01
      4.445379600000e-01      8.137702852596e-01
 s           1
      1.219496200000e-01      1.000000000000e+00
 p           1
      8.000000000000e-01      1.000000000000e+00


[5D]
[7F]
[9G]
[MO]
 Ene=  -11.248643
 Spin=  Alpha
 Occup=    2.000000
   1     0.1590997086109344
   2     0.0031351190631735
   3     0.0026182720692877
   4     0.0014746695129878
   5     0.0000000256845522
   6     0.0000009777433929
   7    -0.0018954176021534
   8    -0.0000007213699416
   9    -0.0000013608819903
  10     0.0003439597470226
  11    -0.0000005863183305
  12     0.0000023178218929
  13    -0.0001734065222697
  14     0.0000002657521170
  15     0.9780927032450433
  16     0.0342287945289012
  17    -0.0215930382352977
  18    -0.0006828315647548
  19     0.0000002565688500
  20    -0.0000009646171712
  21    -0.0005089769480592
  22    -0.0000011651244201
  23     0.0000006972731647
  24    -0.0012013687085532
  25     0.0000014678605290
  26    -0.0009184691260392
  27     0.0004913555618193
  28     0.0000017218045073
  29    -0.0001212542202009
  30     0.0009787927633560
  31    -0.0003702371971892
  32    -0.0000089787397899
  33    -0.0000126299176102
  34    -0.0001215601045744
  35     0.0009784690484115
  36    -0.0003701170038370
  37     0.0000089343608463
  38     0.0000121478153755
  39    -0.0021536461755778
  40     0.0047418516852632
  41    -0.0005977890541236
  42    -0.0011852695628242
  43     0.0005189069331538
  44    -0.0021523940581791
  45     0.0047428590363836
  46    -0.0005959096112140
  47     0.0011847395575946
  48    -0.0005198343984070
 Ene=  -11.244251
 Spin=  Alpha
 Occup=    2.000000
   1    -0.9780244467159169
   2    -0.0353286839614620
   3     0.0244017739010328
   4    -0.0000946424368479
   5    -0.0000002570472283
   6    -0.0000001135245475
   7    -0.0012602842950966
   8    -0.0000010416114363
   9    -0.0000007097073680
  10     0.0013206935815322
  11    -0.0000016536079488
  12    -0.0010909200754299
  13    -0.0002971491291268
  14     0.0000009316166598
  15     0.1589094622916661
  16     0.0080333475933665
  17    -0.0105470029553776
  18     0.0013095194415056
  19     0.0000003212528144
  20     0.0000006907027910
  21    -0.0020280477788250
  22     0.0000024613323870
  23    -0.0000022658691547
  24    -0.0007204895733442
  25     0.0000011407033064
  26    -0.0002320990620391
  27     0.0003435913491870
  28     0.0000003375436404
  29     0.0023316024231202
  30    -0.0050255649668803
  31    -0.0007246526276427
  32    -0.0011742390092652
  33    -0.0005265556922132
  34     0.0023310157429812
  35    -0.0050255293853854
  36    -0.0007257906830563
  37     0.0011743714521942
  38     0.0005257170732403
  39    -0.0004922088368165
  40     0.0008288610118528
  41    -0.0005350637540096
  42    -0.0003206588680536
  43     0.0001462306073596
  44    -0.0004934350055513
  45     0.0008252300774260
  46    -0.0005354796132536
  47     0.0003209779899413
  48    -0.0001471893251308
 Ene=   -1.011565
 Spin=  Alpha
 Occup=    2.000000
   1    -0.2008781862143788
   2     0.3866586017101547
   3     0.1192271336050406
   4    -0.1162766430114843
   5     0.0000078881011148
   6    -0.0000763946026874
   7    -0.0193918754914641
   8    -0.0000018905415516
   9    -0.0000171573999676
  10    -0.0090047400994750
  11     0.0000201880837172
  12     0.0021402340088405
  13     0.0142263676535351
  14     0.0000006882218048
  15    -0.1974923983025261
  16     0.3833161009376004
  17     0.1241094779459901
  18     0.1185637728273414
  19     0.0000270281040727
  20     0.0000650340996837
  21     0.0242519425633893
  22     0.0000032434543281
  23     0.0000166030786621
  24    -0.0092642610031409
  25     0.0000201333549220
  26    -0.0018803996491269
  27     0.0149453285339205
  28     0.0000043718755429
  29     0.1085094993144051
  30     0.0100078049878883
  31    -0.0090625966859287
  32    -0.0119142219689687
  33    -0.0059529186563038
  34     0.1084766676528518
  35     0.0100012607348457
  36    -0.0090702860793481
  37     0.0119089021023224
  38     0.0059396467105412
  39     0.1003638175569283
  40     0.0103141671518369
  41     0.0087764272026539
  42     0.0104565332504523
  43    -0.0051894402664779
  44     0.1004102927426924
  45     0.0103165490726306
  46     0.0087665749158576
  47    -0.0104662342263245
  48     0.0052078633655136
 Ene=   -0.779910
 Spin=  Alpha
 Occup=    2.000000
   1    -0.1502492788951938
   2     0.3017309220144056
   3     0.1242067062233112
   4     0.1529056855731795
   5     0.0000298268297007
   6     0.0001145131092650
   7     0.0611990799806145
   8    -0.0000003093981788
   9     0.0000418567562396
  10    -0.0028104701152305
  11    -0.0000049548318226
  12     0.0067316888701390
  13    -0.0094796014809835
  14    -0.0000038460263849
  15     0.1542820963078488
  16    -0.3117210634157881
  17    -0.1303347680071597
  18     0.1631763705165121
  19    -0.0000072513326041
  20     0.0001331300935573
  21     0.0630531555122542
  22     0.0000110958601544
  23     0.0000445002366880
  24     0.0033318121900803
  25     0.0000024231525579
  26     0.0063866818064079
  27     0.0084691993379183
  28    -0.0000069602440431
  29     0.1879340656595024
  30     0.0367627632213468
  31    -0.0068435541686554
  32    -0.0148989189191945
  33    -0.0079833012271264
  34     0.1879008861232410
  35     0.0367537557206478
  36    -0.0068570257467930
  37     0.0148955813405326
  38     0.0079737986942157
  39    -0.1945032526920339
  40    -0.0391674385173558
  41    -0.0080560516261056
  42    -0.0150592362092671
  43     0.0079596537782962
  44    -0.1944640478901392
  45    -0.0391702707810624
  46    -0.0080290617195686
  47     0.0150600747721182
  48    -0.0079745728481802
 Ene=   -0.617318
 Spin=  Alpha
 Occup=    2.000000
   1     0.0000212094305120
   2    -0.0000477717195810
   3    -0.0000249748443193
   4    -0.0001991294625426
   5     0.3281046511882172
   6     0.0958862154692037
   7    -0.0000873452292125
   8     0.1296142227627531
   9     0.0310344807994893
  10     0.0000066871289264
  11     0.0067367020071093
  12     0.0000019146004834
  13    -0.0000038991236557
  14     0.0049258018976261
  15     0.0000127514546137
  16    -0.0000256869698036
  17    -0.0000586314966555
  18     0.0001485509047248
  19     0.2771735284536477
  20    -0.0536979724305566
  21     0.0000369381590127
  22     0.1163607862508965
  23    -0.0153745327064817
  24     0.0000107720057752
  25     0.0078434771413492
  26    -0.0000059464234424
  27    -0.0000131343803408
  28    -0.0008390784753930
  29     0.2349776772277099
  30     0.0721890624692639
  31    -0.0100466392405861
  32    -0.0091710910891639
  33    -0.0056968732027864
  34    -0.2350932398805580
  35    -0.0722285379861507
  36     0.0100586627744409
  37    -0.0091768385000600
  38    -0.0056880068490763
  39    -0.1831557790256349
  40    -0.0564989712459481
  41    -0.0086907673643349
  42    -0.0066314068838624
  43     0.0045473928446508
  44     0.1831037986273288
  45     0.0564839709668943
  46     0.0086772130123550
  47    -0.0066308423798982
  48     0.0045613744750129
 Ene=   -0.586372
 Spin=  Alpha
 Occup=    2.000000
   1     0.0072281496453676
   2    -0.0251972963948336
   3     0.0348739582826018
   4     0.4056047802252193
   5     0.0002492816836148
   6     0.0003638070952729
   7     0.1482534951330703
   8     0.0001030768218476
   9     0.0001370086413781
  10     0.0013459208203446
  11    -0.0000131977065161
  12     0.0062904199563518
  13    -0.0194338815429676
  14     0.0000008246184172
  15     0.0170253450386076
  16    -0.0455036334533555
  17     0.0244318760030992
  18    -0.4015150816618765
  19    -0.0000274435141692
  20    -0.0002236227468891
  21    -0.1453706518306203
  22    -0.0000110212730869
  23    -0.0000751451882361
  24     0.0007433928741289
  25    -0.0000088972861351
  26    -0.0053131517455054
  27    -0.0173370526218806
  28     0.0000189528736575
  29     0.1714351147918703
  30     0.0573257159597358
  31     0.0011710518310659
  32    -0.0109389263817824
  33    -0.0055589291069475
  34     0.1711118503701907
  35     0.0572223958067177
  36     0.0011729955799018
  37     0.0109276068180283
  38     0.0055547874682696
  39     0.1670029781563051
  40     0.0559310348851766
  41     0.0000458409181219
  42     0.0107814488328724
  43    -0.0053559355927959
  44     0.1667821836715508
  45     0.0558649771825480
  46     0.0000152644655736
  47    -0.0107711727065701
  48     0.0053553052142019
 Ene=   -0.534280
 Spin=  Alpha
 Occup=    2.000000
   1     0.0000163197504173
   2    -0.0000444499973694
   3     0.0000391435102221
   4     0.0003651098701540
   5    -0.1903864068282835
   6    -0.2057132802622143
   7     0.0001497998378184
   8    -0.0944091084469218
   9    -0.1034217742281532
  10     0.0000072513079154
  11     0.0068639521323658
  12    -0.0000129714236574
  13    -0.0000078111066624
  14    -0.0209488422072932
  15     0.0000252102801749
  16    -0.0000593643277649
  17    -0.0000494542688114
  18    -0.0000176858481836
  19     0.2548722454408133
  20    -0.2172951904033079
  21    -0.0000071666480484
  22     0.1276923134053009
  23    -0.1086116501698482
  24    -0.0000014099851432
  25    -0.0053786448938219
  26    -0.0000275782037590
  27    -0.0000177209884319
  28    -0.0224450280676192
  29    -0.2049198414103926
  30    -0.0769441642221883
  31     0.0080415481664439
  32     0.0082358520600349
  33     0.0015422844244964
  34     0.2050684667556596
  35     0.0770045586352164
  36    -0.0080422063459304
  37     0.0082439917683838
  38     0.0015375689304944
  39    -0.2474073292850369
  40    -0.0964349811311155
  41    -0.0108398003021621
  42    -0.0088776984037619
  43     0.0024561267599137
  44     0.2476178081774052
  45     0.0965144853468758
  46     0.0108285968124210
  47    -0.0088966296186866
  48     0.0024823664010917
 Ene=   -0.325360
 Spin=  Alpha
 Occup=    2.000000
   1     0.0000127851878295
   2    -0.0000301423471835
   3    -0.0000104366422114
   4    -0.0001404434036317
   5    -0.2084688481967745
   6     0.3116395871249651
   7    -0.0001621374673686
   8    -0.1664925899573986
   9     0.2886660393678940
  10    -0.0000322355428878
  11    -0.0282465537463716
  12    -0.0000121647535379
  13     0.0000222203409173
  14    -0.0157209143274951
  15    -0.0000113651287620
  16     0.0000220807555181
  17     0.0000372143625984
  18    -0.0002604405735348
  19     0.2048580092757665
  20     0.3115456870287364
  21    -0.0002547904956552
  22     0.1638874302058981
  23     0.2895412472702483
  24     0.0000333573568266
  25     0.0281563448587186
  26    -0.0000136088831362
  27    -0.0000274098157482
  28    -0.0171634466628926
  29    -0.1074100428767668
  30    -0.0884528833191085
  31     0.0001115450923166
  32    -0.0022714329324318
  33     0.0111909218457303
  34     0.1074295136274036
  35     0.0884907798320699
  36    -0.0001250323229833
  37    -0.0022694917699439
  38     0.0111901148594798
  39    -0.1140307653899603
  40    -0.0972400085940125
  41    -0.0010816931266513
  42     0.0020574138681994
  43     0.0105667787265274
  44     0.1140588914714523
  45     0.0972506925081794
  46     0.0010583309557224
  47     0.0020520190251931
  48     0.0105732676408956
 Ene=    0.114057
 Spin=  Alpha
 Occup=    0.000000
   1     0.0000065601719250
   2    -0.0000163004886823
   3    -0.0000523053944543
   4    -0.0001526889260905
   5    -0.1440845775638693
   6     0.3009386857415476
   7    -0.0002777840182826
   8    -0.2619205558387723
   9     0.5330172790835904
  10     0.0000237123542578
  11     0.0203836631523767
  12     0.0000107912888060
  13    -0.0000162802708993
  14     0.0137518292712285
  15     0.0000061023590856
  16    -0.0000194060003670
  17     0.0000256189312354
  18     0.0002060376983229
  19    -0.1499266502434237
  20    -0.3039311771986081
  21     0.0003637249941620
  22    -0.2828779265195888
  23    -0.5370752100728211
  24     0.0000273003702825
  25     0.0204028889964098
  26    -0.0000118434607941
  27    -0.0000188023524476
  28    -0.0133673241286134
  29     0.0860850839750094
  30     0.1919340902544994
  31     0.0032467031583142
  32    -0.0079495726674880
  33     0.0133585073811655
  34    -0.0860913571993998
  35    -0.1919185060533341
  36    -0.0032610106882227
  37    -0.0079504463591588
  38     0.0133543843783252
  39    -0.0880657904466878
  40    -0.2092371270400852
  41     0.0023389326838519
  42    -0.0077867547961084
  43    -0.0136779285114447
  44     0.0881049351487918
  45     0.2092931393687854
  46    -0.0023232458179319
  47    -0.0077889711109536
  48    -0.0136723993794709
 Ene=    0.210276
 Spin=  Alpha
 Occup=    0.000000
   1     0.0661052605047370
   2    -0.1153904511757352
   3    -1.4762659163169609
   4    -0.1301681805911525
   5    -0.0000383472892481
   6    -0.0000968502407356
   7    -0.4955162307877161
   8    -0.0002382368251239
   9    -0.0004512602972660
  10     0.0027139243787440
  11    -0.0000087107389720
  12    -0.0061186554668450
  13    -0.0045581281421928
  14     0.0000010301134895
  15     0.0841427584313761
  16    -0.1411485055407248
  17    -1.6675963702058598
  18     0.1435740012159113
  19    -0.0000555823162502
  20     0.0001482105431464
  21     0.6430910437708537
  22    -0.0002528545705400
  23     0.0007159934420338
  24     0.0029358977654294
  25    -0.0000070671060220
  26     0.0063245034403323
  27    -0.0036274252125459
  28    -0.0000065248480936
  29    -0.0070225067162209
  30     1.0401725624243519
  31    -0.0047814486782969
  32    -0.0018344329794184
  33    -0.0034412296210146
  34    -0.0070253870435798
  35     1.0396958862673298
  36    -0.0047796206286955
  37     0.0018319491268898
  38     0.0034307230759653
  39    -0.0055175589481731
  40     1.2289674435307349
  41     0.0036548432319901
  42     0.0032629833879357
  43    -0.0037026823896423
  44    -0.0054979671475724
  45     1.2292843030116563
  46     0.0036471831217262
  47    -0.0032672646547712
  48     0.0037112604062551
 Ene=    0.225510
 Spin=  Alpha
 Occup=    0.000000
   1     0.1002418057366433
   2    -0.1260628470382803
   3    -2.2108828397521565
   4    -0.0859061443311176
   5     0.0000005916974633
   6    -0.0000941230754145
   7    -0.2789975666872466
   8     0.0000875480841201
   9    -0.0003104804790824
  10     0.0018883879601450
  11     0.0000004536972015
  12     0.0008252816542219
  13     0.0046725248217504
  14     0.0000095488154374
  15    -0.0838601258195434
  16     0.0941182566139915
  17     1.9065251756697645
  18    -0.0726892748482692
  19    -0.0000869622646314
  20    -0.0000207663924069
  21    -0.2198140357742671
  22    -0.0003461666717006
  23    -0.0000657259850024
  24    -0.0010141204152781
  25    -0.0000069253774392
  26     0.0022173967986436
  27    -0.0066201588848416
  28     0.0000006641411571
  29     0.0223633560416477
  30     1.2770255130751451
  31    -0.0016890808919362
  32    -0.0041053480262308
  33     0.0009880888181978
  34     0.0223447129611147
  35     1.2768507578123507
  36    -0.0016948970949931
  37     0.0041058544077394
  38    -0.0009914012171725
  39    -0.0261543598444886
  40    -1.0591950553836880
  41     0.0000428688324706
  42    -0.0047479098974267
  43    -0.0012663814797318
  44    -0.0261498253634925
  45    -1.0580244428069221
  46     0.0000501156159496
  47     0.0047458380785750
  48     0.0012727961384535
 Ene=    0.246243
 Spin=  Alpha
 Occup=    0.000000
   1     0.0000261577744000
   2    -0.0000163057042965
   3    -0.0012719166032603
   4    -0.0002062919419619
   5     0.1821169909960264
   6     0.1376098770190153
   7    -0.0005861261020602
   8     0.7074000229871517
   9     0.6887828615871237
  10     0.0000089432472871
  11     0.0083265563903954
  12     0.0000000088145049
  13    -0.0000036927951693
  14    -0.0071762723358655
  15     0.0000037855720809
  16    -0.0000489795623498
  17     0.0005494087351111
  18     0.0001370315391504
  19     0.1862100340423818
  20    -0.1292122158828880
  21     0.0009129456795856
  22     0.5992605398742918
  23    -0.6339047915478927
  24     0.0000049636989266
  25     0.0081629891894164
  26     0.0000014208177368
  27    -0.0000067240808870
  28     0.0069079329070251
  29    -0.0006938283242985
  30    -1.2450828070446067
  31     0.0050530480325542
  32     0.0044234256343315
  33     0.0050532594746104
  34     0.0007430143802728
  35     1.2462162364695055
  36    -0.0050671443954026
  37     0.0044246995967718
  38     0.0050427526545799
  39     0.0000397691466045
  40     1.1120997987771783
  41     0.0041328827756506
  42     0.0033829488472177
  43    -0.0043200046168719
  44    -0.0000215529002337
  45    -1.1122866682550665
  46    -0.0041399110397811
  47     0.0033850895297906
  48    -0.0043206497283994
 Ene=    0.288831
 Spin=  Alpha
 Occup=    0.000000
   1     0.0000055844680942
   2     0.0000392735763115
   3    -0.0016472827791202
   4     0.0000205349556031
   5    -0.1741174521120396
   6    -0.0919421364864706
   7     0.0006502801142176
   8    -1.3389898494274317
   9    -0.3252431126546184
  10     0.0000035591156282
  11     0.0009144060712015
  12    -0.0000095042905911
  13     0.0000091413973978
  14    -0.0180591994824006
  15    -0.0000102212397284
  16    -0.0000217781347676
  17     0.0012111300314914
  18     0.0000992663775089
  19     0.1874452680412275
  20    -0.1129083788936687
  21     0.0008892055307269
  22     1.3218943382264010
  23    -0.3605462778216802
  24    -0.0000035450174751
  25     0.0004161128350159
  26    -0.0000147542412055
  27    -0.0000016632293113
  28    -0.0149277933928585
  29    -0.0283630602051723
  30     1.4487186283910891
  31    -0.0115573628402535
  32    -0.0065942834222996
  33    -0.0036216937941120
  34     0.0283957063053945
  35    -1.4477426447530553
  36     0.0115560982863545
  37    -0.0065867818202772
  38    -0.0036125290865576
  39    -0.0228809224849474
  40     1.4717641242865946
  41     0.0113991261949792
  42     0.0056789715242221
  43    -0.0040203255748198
  44     0.0228594744419692
  45    -1.4722719171377658
  46    -0.0114059772626002
  47     0.0056774268479814
  48    -0.0040343984396591
 Ene=    0.473208
 Spin=  Alpha
 Occup=    0.000000
   1     0.0686265738509746
   2    -0.1316993003675588
   3    -4.7226786479013088
   4     0.1504194111968260
   5     0.0000537147273147
   6     0.0000626655173673
   7     3.3814039782482630
   8     0.0003690024269705
   9     0.0021235247734526
  10     0.0009597137240623
  11     0.0000100958488291
  12    -0.0161599072172279
  13     0.0215033459609587
  14     0.0000342134703949
  15    -0.0693378857436548
  16     0.1153155776037194
  17     4.7983690369752168
  18     0.1572671069902234
  19    -0.0000243020763386
  20     0.0001506300295255
  21     3.3171345983558376
  22     0.0000467820445791
  23     0.0023479959237632
  24     0.0034455010428429
  25    -0.0000096281983469
  26    -0.0108430662972169
  27    -0.0171159930145168
  28    -0.0000180201178281
  29    -0.1378949985855427
  30    -0.2162037062763777
  31     0.0083191376193316
  32    -0.0054117663003249
  33    -0.0029379848133876
  34    -0.1380167514268556
  35    -0.2161077116496455
  36     0.0083039572142664
  37     0.0054197452046231
  38     0.0029367247443103
  39     0.0713043055485652
  40     0.2438745844292341
  41     0.0096496888948612
  42    -0.0031776306313975
  43     0.0018053826965091
  44     0.0718224719953840
  45     0.2429205720247637
  46     0.0095951899023405
  47     0.0031640716699168
  48    -0.0017812070586078
 Ene=    0.568684
 Spin=  Alpha
 Occup=    0.000000
   1     0.0930212701334193
   2    -0.7775198781437751
   3     0.5157500911565638
   4     0.3939190784254803
   5     0.0001326837390714
   6     0.0001392034698693
   7    -0.5977768294446156
   8    -0.0002004755892697
   9    -0.0007347904358326
  10     0.0315983941218404
  11    -0.0000568528530747
  12    -0.0041541101328006
  13    -0.0408534504509602
  14     0.0000451060050079
  15     0.0995817361473427
  16    -0.8662036872269474
  17     1.0230730808051991
  18    -0.3674552931791452
  19     0.0001613565546690
  20    -0.0002832137000460
  21     0.7922100564286637
  22    -0.0004366017098524
  23     0.0009292190624333
  24     0.0345579925555294
  25    -0.0000589357000840
  26     0.0072732935673156
  27    -0.0418172207099973
  28    -0.0000840138589508
  29     0.0517247497229728
  30    -0.2294075324940361
  31    -0.0325886456297691
  32     0.0019278154065240
  33     0.0023744462515733
  34     0.0510950134077303
  35    -0.2292515872937975
  36    -0.0326589187393699
  37    -0.0019301262707404
  38    -0.0024493209828605
  39    -0.0099406218511669
  40    -0.1735920741641445
  41     0.0357121382681333
  42    -0.0036517217961859
  43     0.0031436159638215
  44    -0.0087413188326219
  45    -0.1747807624458965
  46     0.0356168144410357
  47     0.0036390730823941
  48    -0.0030696240772484
 Ene=    0.649227
 Spin=  Alpha
 Occup=    0.000000
   1    -0.0637923746542904
   2     0.6949480822555250
   3    -2.9863085155893097
   4     0.1575110108405431
   5    -0.0002408591258230
   6     0.0003985541541149
   7    -0.3321542985644428
   8     0.0008205891943532
   9     0.0002636487832985
  10    -0.0472141492755068
  11     0.0000069965234043
  12     0.0469411091805851
  13    -0.0321330217850238
  14    -0.0001731920090416
  15    -0.0613990553418130
  16     0.4823093142448761
  17    -0.5677182634880910
  18    -0.0843797427491843
  19    -0.0001015353965127
  20    -0.0000578005745115
  21     1.3146606360420012
  22     0.0004246531994690
  23     0.0003322614383737
  24    -0.0389481866285924
  25     0.0000304838337834
  26    -0.0266539138696515
  27    -0.0300636697640038
  28     0.0001575497141295
  29     0.5740223002891098
  30     0.4705039259694937
  31    -0.0170306765963700
  32     0.0191596088046795
  33     0.0048467817052449
  34     0.5755513085074420
  35     0.4702193956038476
  36    -0.0169082864856684
  37    -0.0191701401612971
  38    -0.0047924680783747
  39     0.4273379544955093
  40     0.4165599933845419
  41     0.0173463588412944
  42    -0.0149834994814522
  43     0.0012325930122476
  44     0.4259084699215246
  45     0.4168308678411649
  46     0.0174355693998754
  47     0.0149741342759288
  48    -0.0012453061818775
 Ene=    0.661073
 Spin=  Alpha
 Occup=    0.000000
   1    -0.0002218406702086
   2     0.0022440301394100
   3    -0.0046462740490249
   4     0.0000357797725407
   5     0.1110867084320118
   6    -0.1006431323404418
   7    -0.0006011510974732
   8    -0.5203448944078554
   9    -0.5168299332514048
  10    -0.0001202206867044
  11     0.0072539523191421
  12     0.0001778678416673
  13    -0.0000313065940630
  14     0.0995020593648806
  15    -0.0001377091415262
  16     0.0009588814442262
  17    -0.0011975702470569
  18     0.0003292782393127
  19     0.0745619614533834
  20     0.0504596971698571
  21    -0.0010398501190542
  22    -0.5311305415316497
  23     0.5435279172277483
  24    -0.0000387413443709
  25     0.0100783357731186
  26    -0.0000934407562820
  27    -0.0000188399133490
  28    -0.1074182420669280
  29     0.5330126088334843
  30    -0.0441455664749516
  31     0.0501221581015095
  32     0.0050375280597417
  33    -0.0221452756423533
  34    -0.5308149993787410
  35     0.0463816882626661
  36    -0.0500763372013108
  37     0.0049586183557086
  38    -0.0222366179503049
  39    -0.6118822240360310
  40     0.1544394808054754
  41     0.0497878293965695
  42     0.0044116896194321
  43     0.0199560659382053
  44     0.6118731510452052
  45    -0.1535970616129816
  46    -0.0499561113644340
  47     0.0043866028467785
  48     0.0198847933194153
 Ene=    0.720593
 Spin=  Alpha
 Occup=    0.000000
   1     0.0003106652352876
   2    -0.0053718430273009
   3     0.0296438748044542
   4    -0.0016467686371213
   5    -0.3183891242411748
   6     0.6281318846607299
   7    -0.0061624464112915
   8     0.4199465331342617
   9    -0.5843126294707899
  10     0.0001603326739189
  11    -0.0585988147926119
  12    -0.0004269958599918
  13    -0.0000028933792367
  14    -0.0064937700800196
  15    -0.0003135424420772
  16     0.0055461342033587
  17    -0.0326770977399967
  18    -0.0023650283933873
  19     0.3131610685966309
  20     0.6468472342798292
  21    -0.0029905300571039
  22    -0.4442137283020492
  23    -0.5649521861123087
  24    -0.0002258254495528
  25     0.0589036560755480
  26    -0.0005168314664477
  27    -0.0001164500313651
  28    -0.0173118353124714
  29    -0.0266496137061306
  30     0.1163856086554692
  31     0.0176771605652258
  32    -0.0106143588176933
  33     0.0110947020125096
  34     0.0203079184537891
  35    -0.1206420596813155
  36    -0.0174841533325334
  37    -0.0105404566467179
  38     0.0112014132336881
  39    -0.0607202697166555
  40     0.1314893143540685
  41    -0.0122891151047197
  42     0.0103670513012673
  43     0.0110505685365052
  44     0.0695290560649919
  45    -0.1256877675460149
  46     0.0126879686997342
  47     0.0105403810200379
  48     0.0109093650479466
 Ene=    0.723318
 Spin=  Alpha
 Occup=    0.000000
   1     0.0388356250815361
   2    -0.6911194277210720
   3     3.8155104460706308
   4    -0.1681301248126713
   5     0.0022746328805540
   6    -0.0048932430570183
   7    -0.8412480116134115
   8    -0.0030279405027830
   9     0.0033374803243605
  10     0.0293391894783372
  11     0.0004374518021393
  12    -0.0551716175183670
  13    -0.0070066621823863
  14     0.0001760142985230
  15    -0.0403957403925792
  16     0.7391847972170387
  17    -4.3255628464950089
  18    -0.2538399428395197
  19    -0.0020466684055477
  20    -0.0052058187136295
  21    -0.3838290144265490
  22     0.0018489229515786
  23     0.0051117043167621
  24    -0.0417492341302986
  25    -0.0004095229450594
  26    -0.0698679881300071
  27    -0.0110642074772205
  28     0.0001149294583699
  29    -0.4080669897077119
  30    -0.2741084008325375
  31     0.0127346357092044
  32    -0.0040985843220465
  33    -0.0095344896269245
  34    -0.4093742265982090
  35    -0.2716511847443784
  36     0.0128361896930089
  37     0.0042752078642191
  38     0.0093664110296498
  39     0.6042284697339598
  40     0.4080186822026219
  41     0.0282363947629616
  42    -0.0129003002354416
  43     0.0114418231864498
  44     0.6044106755210240
  45     0.4104806025322406
  46     0.0280782948234479
  47     0.0127133364888706
  48    -0.0114995677675504
 Ene=    0.793840
 Spin=  Alpha
 Occup=    0.000000
   1     0.0000041900347660
   2    -0.0000133659529717
   3     0.0000686099323397
   4    -0.0003955299404857
   5    -0.3435614820565055
   6     0.6800620594010167
   7     0.0006176264984723
   8     0.2950467479721963
   9    -0.9443877529935629
  10     0.0000324452202004