[Molden Format]
[Atoms] Angs
 c       1                    6  7.495000000000e-01  0.000000000000e+00 -1.000000000000e-03
 c       2                    6 -6.189000000000e-01 -2.000000000000e-04 -1.900000000000e-03
 h       3                    1  1.306500000000e+00  7.273000000000e-01  6.034000000000e-01
 h       4                    1  1.307600000000e+00 -7.271000000000e-01 -6.047000000000e-01
 h       5                    1 -1.283300000000e+00 -6.982000000000e-01  5.855000000000e-01
 h       6                    1 -1.281500000000e+00  6.983000000000e-01 -5.908000000000e-01
[GTO]
1
 s           5
      1.238401693800e+03      5.517365048110e-03
      1.862900499200e+02      4.108882855595e-02
      4.225117634600e+01      1.822538212649e-01
      1.167655793200e+01      4.682845943743e-01
      3.593050648200e+00      4.457581733600e-01
 s           1
      4.024514736300e-01      1.000000000000e+00
 s           1
      1.309018266800e-01      1.000000000000e+00
 p           3
      9.468097062100e+00      5.688833201104e-02
      2.010354514200e+00      3.129405933647e-01
      5.477100470700e-01      7.606501650914e-01
 p           1
      1.526861379500e-01      1.000000000000e+00
 d           1
      8.000000000000e-01      1.000000000000e+00

2
 s           5
      1.238401693800e+03      5.517365048110e-03
      1.862900499200e+02      4.108882855595e-02
      4.225117634600e+01      1.822538212649e-01
      1.167655793200e+01      4.682845943743e-01
      3.593050648200e+00      4.457581733600e-01
 s           1
      4.024514736300e-01      1.000000000000e+00
 s           1
      1.309018266800e-01      1.000000000000e+00
 p           3
      9.468097062100e+00      5.688833201104e-02
      2.010354514200e+00      3.129405933647e-01
      5.477100470700e-01      7.606501650914e-01
 p           1
      1.526861379500e-01      1.000000000000e+00
 d           1
      8.000000000000e-01      1.000000000000e+00

3
 s           3
      1.301070100000e+01      3.348548481299e-02
      1.962257200000e+00      2.347218708812e-01
      4.445379600000e-01      8.137702852596e-01
 s           1
      1.219496200000e-01      1.000000000000e+00
 p           1
      8.000000000000e-01      1.000000000000e+00

4
 s           3
      1.301070100000e+01      3.348548481299e-02
      1.962257200000e+00      2.347218708812e-01
      4.445379600000e-01      8.137702852596e-01
 s           1
      1.219496200000e-01      1.000000000000e+00
 p           1
      8.000000000000e-01      1.000000000000e+00

5
 s           3
      1.301070100000e+01      3.348548481299e-02
      1.962257200000e+00      2.347218708812e-01
      4.445379600000e-01      8.137702852596e-01
 s           1
      1.219496200000e-01      1.000000000000e+00
 p           1
      8.000000000000e-01      1.000000000000e+00

6
 s           3
      1.301070100000e+01      3.348548481299e-02
      1.962257200000e+00      2.347218708812e-01
      4.445379600000e-01      8.137702852596e-01
 s           1
      1.219496200000e-01      1.000000000000e+00
 p           1
      8.000000000000e-01      1.000000000000e+00


[5D]
[7F]
[9G]
[MO]
 Ene=  -11.313596
 Spin=  Alpha
 Occup=    2.000000
   1     0.0049795734824839
   2    -0.0021694336514637
   3     0.0054636810604316
   4     0.0014645419984336
   5     0.0000000691409069
   6     0.0000010471860722
   7    -0.0022302440444638
   8    -0.0000009068119826
   9    -0.0000013777333180
  10     0.0003282656681959
  11    -0.0000008579831916
  12    -0.0002261033830444
  13    -0.0003914801915520
  14     0.0000003741752954
  15     0.9910396449153608
  16     0.0345292323320439
  17    -0.0224473433758206
  18    -0.0006730103894660
  19     0.0000004742424432
  20    -0.0000009340608252
  21    -0.0006778081768337
  22    -0.0000015341381972
  23     0.0000009368179779
  24    -0.0008412241712528
  25     0.0000008450538990
  26    -0.0012632822072225
  27     0.0009957059420113
  28     0.0000023503378434
  29     0.0002186495736256
  30     0.0005589385676900
  31    -0.0004579369128275
  32    -0.0001614620288517
  33    -0.0001360375001406
  34     0.0002184365063525
  35     0.0005586004493382
  36    -0.0004580769863184
  37     0.0001613423295553
  38     0.0001354220116645
  39    -0.0021158547442991
  40     0.0046577028859298
  41    -0.0006912942446120
  42    -0.0010410312121949
  43     0.0008765146159001
  44    -0.0021135216993410
  45     0.0046581102476291
  46    -0.0006883349236366
  47     0.0010406464192878
  48    -0.0008773577482859
 Ene=  -11.188247
 Spin=  Alpha
 Occup=    2.000000
   1    -0.9907350609279032
   2    -0.0358178304314630
   3     0.0236005482185242
   4     0.0001380226272072
   5    -0.0000000169137986
   6    -0.0000000561239854
   7    -0.0010349265319276
   8    -0.0000010425326907
   9     0.0000000056561249
  10     0.0006121388412253
  11    -0.0000010619161891
  12    -0.0012453633540483
  13    -0.0005919713780226
  14     0.0000009224087904
  15     0.0047500174961694
  16     0.0024754962110891
  17    -0.0064271899927798
  18     0.0015578449531720
  19     0.0000003416086344
  20     0.0000009191566325
  21    -0.0019841703241143
  22     0.0000034022698996
  23    -0.0000042823813890
  24    -0.0004030531969206
  25     0.0000010331676686
  26    -0.0000847755310290
  27     0.0005574495491410
  28     0.0000000623531431
  29     0.0023207332219563
  30    -0.0051192804617571
  31    -0.0006354275052334
  32    -0.0009494174004595
  33    -0.0007878759321420
  34     0.0023204965684608
  35    -0.0051191348558151
  36    -0.0006369125065660
  37     0.0009493858167028
  38     0.0007870925641817
  39    -0.0000745150274734
  40    -0.0001778823407066
  41    -0.0003900716875494
  42    -0.0000955458231282
  43     0.0000828172290243
  44    -0.0000764246485735
  45    -0.0001844224479538
  46    -0.0003914365401301
  47     0.0000959027347219
  48    -0.0000837259195575
 Ene=   -1.011910
 Spin=  Alpha
 Occup=    2.000000
   1     0.1810210908744195
   2    -0.3395888043012572
   3    -0.1122083060716250
   4     0.1223971560828803
   5     0.0000122767536589
   6     0.0000783948193453
   7     0.0265485891414157
   8     0.0000080672566097
   9     0.0000145000323732
  10     0.0088169315474898
  11    -0.0000194990927825
  12    -0.0024763961565984
  13    -0.0148279394073382
  14    -0.0000022220531486
  15     0.2162521408228479
  16    -0.4392467591469854
  17    -0.1233119663706679
  18    -0.1112232775936273
  19    -0.0000402019774131
  20    -0.0000554782442018
  21    -0.0176921954851000
  22    -0.0000022982579973
  23    -0.0000153740413353
  24     0.0097905281409219
  25    -0.0000214847324225
  26     0.0031130635468695
  27    -0.0154317915510395
  28    -0.0000076277298928
  29    -0.0913406920140746
  30    -0.0097091694424526
  31     0.0084092895809144
  32     0.0085659278441221
  33     0.0070696029861647
  34    -0.0913272820488174
  35    -0.0097077782334307
  36     0.0084201386299210
  37    -0.0085613403024235
  38    -0.0070578260787833
  39    -0.1142397027032179
  40    -0.0131640180847872
  41    -0.0094646856374435
  42    -0.0095167874669533
  43     0.0081158038984682
  44    -0.1142900911992421
  45    -0.0131752644878145
  46    -0.0094446613062344
  47     0.0095285756617776
  48    -0.0081412312171135
 Ene=   -0.786544
 Spin=  Alpha
 Occup=    2.000000
   1    -0.1639027914232084
   2     0.3175009653876075
   3     0.1467914942739476
   4     0.0749262668280176
   5     0.0000150412492370
   6     0.0000623827510256
   7     0.0251770741608087
   8    -0.0000027908773699
   9     0.0000223635218325
  10     0.0004584006451943
  11    -0.0000051527457769
  12     0.0078648723879666
  13    -0.0033671599783535
  14    -0.0000048282143060
  15     0.1326887807707739
  16    -0.2772838708647017
  17    -0.1337957050445870
  18     0.2410606364484502
  19     0.0000255777123034
  20     0.0001732228777685
  21     0.0843105539332471
  22     0.0000198174889195
  23     0.0000521983414882
  24    -0.0027748968158361
  25     0.0000142957125350
  26     0.0096698458755459
  27     0.0084269096885845
  28    -0.0000116808523805
  29     0.1671746767244729
  30     0.0337468374885029
  31    -0.0075276460121544
  32    -0.0118604363886455
  33    -0.0099872162693749
  34     0.1671567292927584
  35     0.0337423729012349
  36    -0.0075442422962051
  37     0.0118566698437665
  38     0.0099767474203816
  39    -0.2043323559251836
  40    -0.0390085819862136
  41    -0.0077948661723084
  42    -0.0133528089676693
  43     0.0113844370142461
  44    -0.2041755003392269
  45    -0.0389963207544244
  46    -0.0077480666538795
  47     0.0133509494233052
  48    -0.0113960678536202
 Ene=   -0.598878
 Spin=  Alpha
 Occup=    2.000000
   1     0.0001240897925971
   2    -0.0002273651082258
   3    -0.0003429546255884
   4    -0.0012567049456245
   5     0.1398718295737190
   6    -0.0155677701336611
   7    -0.0004200661130818
   8     0.0500125347086206
   9     0.0017884819161446
  10    -0.0000162625327690
  11     0.0101300690094365
  12    -0.0000379754711008
  13     0.0000567269249431
  14    -0.0089552149158979
  15    -0.0001124727397693
  16     0.0002925931806768
  17     0.0000286713674904
  18     0.0014301302798556
  19     0.3465994932334397
  20    -0.2554359511934252
  21     0.0005353199001156
  22     0.1556182537505381
  23    -0.1089522476077684
  24     0.0000115509500874
  25     0.0135877847783645
  26    -0.0000072634623749
  27     0.0000031968218018
  28    -0.0112715387936001
  29     0.0654217523714669
  30     0.0189145320637564
  31    -0.0033007332862970
  32    -0.0004897402468097
  33    -0.0038859270422715
  34    -0.0667602614763729
  35    -0.0193451054783834
  36     0.0033170894746508
  37    -0.0005628559704272
  38    -0.0039435710926573
  39    -0.2981483085005298
  40    -0.1042380151544278
  41    -0.0136679796037676
  42    -0.0089766906298015
  43     0.0082172548414739
  44     0.2974068755957580
  45     0.1040084909786929
  46     0.0136401761167782
  47    -0.0089460982535941
  48     0.0082138582828717
 Ene=   -0.586140
 Spin=  Alpha
 Occup=    2.000000
   1     0.0246829983117915
   2    -0.0395168392087597
   3    -0.1050740381360576
   4    -0.3948613268761531
   5    -0.0006859641615972
   6    -0.0003157483437606
   7    -0.1255851917508403
   8    -0.0002588762179965
   9    -0.0001351264358977
  10    -0.0084562609491712
  11    -0.0000140646465898
  12    -0.0096502555629009
  13     0.0190806180085307
  14     0.0000407183778778
  15    -0.0430712713949402
  16     0.1099941849342352
  17     0.0297543170845399
  18     0.3923466973844081
  19    -0.0011253185384655
  20     0.0010587100383266
  21     0.1605069044198897
  22    -0.0005285167954999
  23     0.0004583144911370
  24    -0.0052836105860872
  25    -0.0000285942824644
  26     0.0061059747482012
  27     0.0120571208706443
  28     0.0000197515522850
  29    -0.2005909868282451
  30    -0.0660733450378823
  31     0.0007379598005957
  32     0.0110927448624814
  33     0.0092897948030560
  34    -0.1998820373070208
  35    -0.0658568359120586
  36     0.0007205500383058
  37    -0.0110813158382072
  38    -0.0092557926823882
  39    -0.1358878458132657
  40    -0.0423447309615046
  41     0.0004582895397524
  42    -0.0076520423340276
  43     0.0064827893336397
  44    -0.1375860152870519
  45    -0.0429744349224576
  46     0.0004085013578769
  47     0.0077001937540404
  48    -0.0065297601557339
 Ene=   -0.557188
 Spin=  Alpha
 Occup=    2.000000
   1     0.0000079783954119
   2    -0.0000104560779231
   3    -0.0000766731519465
   4    -0.0004338102501784
   5     0.2726611700076791
   6     0.2931191670162431
   7    -0.0001744496240083
   8     0.1242120298268051
   9     0.1446393000989266
  10    -0.0000022153556696
  11     0.0016347537333879
  12     0.0000038955054037
  13     0.0000026891093012
  14     0.0098217092525368
  15    -0.0000257342867581
  16     0.0000635159929844
  17     0.0000403484948230
  18     0.0000609854304756
  19     0.0083290467945742
  20     0.1627758256754267
  21     0.0000333017414165
  22     0.0083094558753545
  23     0.0796816090881465
  24     0.0000049850895399
  25     0.0099747404035999
  26     0.0000195033221029
  27     0.0000010602756955
  28     0.0152767291962555
  29     0.2930852108188975
  30     0.0999116445816178
  31    -0.0137393473557631
  32    -0.0099775335258833
  33    -0.0063744409713308
  34    -0.2932684332012263
  35    -0.0999759300505524
  36     0.0137507797102558
  37    -0.0099833294409984
  38    -0.0063651282241722
  39     0.0706475926594039
  40     0.0252732591430000
  41     0.0033685069284760
  42     0.0032867521798925
  43    -0.0003507767477377
  44    -0.0708097629688219
  45    -0.0253251946459910
  46    -0.0033640000511579
  47     0.0032982318406995
  48    -0.0003666470184048
 Ene=    0.000000
 Spin=  Alpha
 Occup=    1.498283
   1     0.0000306609734689
   2    -0.0000754756023685
   3    -0.0000543429237917
   4    -0.0000934991298663
   5    -0.3602499611777284
   6     0.3862756823264588
   7    -0.0001698407735877
   8    -0.3685341134406408
   9     0.4222574615535401
  10    -0.0000134542106965
  11    -0.0121015223046784
  12    -0.0000002768144028
  13     0.0000070131006627
  14     0.0033819432917546
  15    -0.0000061747273543
  16    -0.0000000462494797
  17     0.0001070941324952
  18    -0.0000760092679922
  19     0.0488512157092735
  20     0.0234607546544391
  21    -0.0001253096009106
  22     0.0144237568570492
  23     0.0344174721250140
  24     0.0000518390528607
  25     0.0358051319774471
  26    -0.0000300680736572
  27    -0.0000378654559984
  28    -0.0337230664097378
  29    -0.0319538995888304
  30    -0.0175895322613506
  31     0.0007612958763995
  32    -0.0112868999606142
  33     0.0152997526179923
  34     0.0319800202146672
  35     0.0176564535877063
  36    -0.0007722864890193
  37    -0.0112852029490303
  38     0.0152993517756124
  39    -0.1705678898453051
  40    -0.2017261277228914
  41     0.0000842343351689
  42    -0.0013060481561203
  43     0.0026746571413949
  44     0.1706367400382671
  45     0.2017514673498677
  46    -0.0001022787025976
  47    -0.0013211171077886
  48     0.0026892151829133
 Ene=    0.000000
 Spin=  Alpha
 Occup=    0.501717
   1    -0.0000028425830688
   2     0.0000071334439140
   3     0.0000088571949295
   4     0.0000415167240657
   5    -0.0198415442391892
   6    -0.0829488279164983
   7     0.0000651371502819
   8     0.0162224446802142
   9    -0.1178073157820908
  10    -0.0000307178672369
  11    -0.0271799107264112
  12    -0.0000245332125164
  13     0.0000294001289005
  14    -0.0317099661638582
  15    -0.0000002956433964
  16     0.0000083391020807
  17    -0.0000437532165784
  18    -0.0003179286877564
  19     0.3710196230763699
  20     0.4198792724042025
  21    -0.0002939183578390
  22     0.3973361712697963
  23     0.4116097298898258
  24    -0.0000109746413104
  25    -0.0036417973080171
  26     0.0000093057840030
  27     0.0000023677530922
  28     0.0105320548359085
  29    -0.1655958284149082
  30    -0.1418588176924458
  31    -0.0005004661166620
  32     0.0050592782422935
  33    -0.0003316973345748
  34     0.1655933450674472
  35     0.1418517011621424
  36     0.0004971953398335
  37     0.0050599777379174
  38    -0.0003321701603730
  39     0.0304675959029455
  40     0.0596112926623739
  41    -0.0006980304126337
  42     0.0106892759615551
  43     0.0117147326730034
  44    -0.0304668410571527
  45    -0.0595887193300901
  46     0.0006832680795920
  47     0.0106890126794365
  48     0.0117092021996838
 Ene=    0.197075
 Spin=  Alpha
 Occup=    0.000000
   1    -0.0089877975362394
   2    -0.0119679608658843
   3     0.0398862784789748
   4    -0.0557299934284557
   5    -0.0000423175455657
   6    -0.0000129436964111
   7    -0.1621860797752975
   8    -0.0001916085200954
   9    -0.0000589076459519
  10     0.0019363078151302
  11    -0.0000036841280557
  12    -0.0062816444630739
  13    -0.0038745496264194
  14     0.0000005439698817
  15     0.1180559307369911
  16    -0.1845214478467423
  17    -2.2891679917606282
  18     0.1748819479061355
  19    -0.0000157351142183
  20     0.0001461160946467
  21     0.7019546164012299
  22    -0.0000991757321828
  23     0.0006736655076293
  24     0.0003255104118861
  25     0.0000030458935447
  26     0.0018443905528947
  27     0.0003168633686424
  28    -0.0000053272118565
  29    -0.0302576568950863
  30     0.0783271898922558
  31    -0.0017937025473008
  32    -0.0008913293007495
  33    -0.0020116635602946
  34    -0.0302624722667886
  35     0.0781649226680819
  36    -0.0017928898660456
  37     0.0008911819428799
  38     0.0020056169860714
  39     0.0228943792195589
  40     1.5766903519848690
  41     0.0015375256054061
  42     0.0040958196663151
  43    -0.0035158766649801
  44     0.0229371979063832
  45     1.5760081825822436
  46     0.0015232283333988
  47    -0.0040995381235370
  48     0.0035201896577148
 Ene=    0.231681
 Spin=  Alpha
 Occup=    0.000000
   1    -0.1217654258254754
   2     0.1643795326004981
   3     2.7399202292545484
   4     0.1253772698926155
   5    -0.0000053398387535
   6     0.0001521018651978
   7     0.5079013512458210
   8    -0.0001144513556700
   9     0.0007547973838741
  10    -0.0011710387092052
  11     0.0000088805346001
  12     0.0063751255943129
  13    -0.0007508586654625
  14    -0.0000147014520071
  15     0.0113719261924109
  16     0.0419821739384580
  17    -0.5344992633619496
  18    -0.0326780485482067
  19     0.0002319790819886
  20    -0.0002323766150575
  21    -0.2647017587065099
  22     0.0009120135589596
  23    -0.0010469303069000
  24    -0.0040454696404201
  25     0.0000177926458371
  26    -0.0088475631636240
  27     0.0087687007622002
  28     0.0000041624639595
  29    -0.0061248959968545
  30    -1.6545640959685113
  31     0.0054194380718356
  32     0.0043410334686901
  33     0.0035014951502003
  34    -0.0061211237372375
  35    -1.6541896368461182
  36     0.0054241577182873
  37    -0.0043426218154382
  38    -0.0034874732261071
  39     0.0427827544004573
  40     0.0391724157121229
  41    -0.0014370225256542
  42    -0.0000835971199733
  43     0.0018017842635812
  44     0.0427668994916780
  45     0.0361422901597227
  46    -0.0014450449253002
  47     0.0000938411273136
  48    -0.0018171177124471
 Ene=    0.252896
 Spin=  Alpha
 Occup=    0.000000
   1     0.0000779486952871
   2    -0.0000437910687073
   3    -0.0037411054280867
   4    -0.0002506471476418
   5     0.0216439560131602
   6     0.0723481202114282
   7    -0.0004227057737727
   8    -0.0931798065188875
   9     0.5252491419556797
  10     0.0000098984393111
  11     0.0094544141678980
  12    -0.0000018659931898
  13     0.0000019610110403
  14    -0.0099131968419962
  15    -0.0000011386216088
  16    -0.0001285300042753
  17     0.0015300428202992
  18     0.0002384078571071
  19     0.2477394173003508
  20    -0.2230666602554608
  21     0.0018367420876397
  22     0.9691771329758465
  23    -0.9752273977097975
  24     0.0000074914953075
  25     0.0083043956817513
  26    -0.0000005474805370
  27    -0.0000054435347407
  28    -0.0032054040100283
  29     0.0015407428418161
  30    -0.3568484779162067
  31     0.0018649366706563
  32     0.0001785323817240
  33     0.0025770963523785
  34    -0.0014437869997566
  35     0.3601616842673564
  36    -0.0018899256727023
  37     0.0001828393972091
  38     0.0025743980788274
  39    -0.0148106988788608
  40     1.7033858674781481
  41     0.0079859598745648
  42     0.0044614228049695
  43    -0.0047688010326131
  44     0.0147347907908800
  45    -1.7037744285706706
  46    -0.0080118410818338
  47     0.0044535802342013
  48    -0.0047682084340595
 Ene=    0.279437
 Spin=  Alpha
 Occup=    0.000000
   1     0.0000022996776402
   2     0.0000219779086242
   3    -0.0007823667125876
   4     0.0001310424547170
   5    -0.2157379539746331
   6    -0.1785997834648966
   7     0.0009678747909265
   8    -1.2888672771239340
   9    -0.9449394736023918
  10    -0.0000007943490315
  11    -0.0014156498785665
  12    -0.0000049263190165
  13     0.0000058413047614
  14    -0.0065430414509815
  15    -0.0000039002344901
  16    -0.0000189823422196
  17     0.0005380743660424
  18     0.0000531009845466
  19     0.0307334164090643
  20    -0.0692231247906170
  21     0.0001808361140470
  22     0.5891899085703957
  23     0.0858372493344063
  24    -0.0000106086115410
  25    -0.0083132996803540
  26    -0.0000106426734785
  27     0.0000082928273366
  28    -0.0139370568900370
  29    -0.0245495659789289
  30     1.8646494873501958
  31    -0.0128544414331559
  32    -0.0072460329081315
  33    -0.0060952367289687
  34     0.0245674658186521
  35    -1.8641668372200344
  36     0.0128596125086493
  37    -0.0072401864873033
  38    -0.0060792359671816
  39    -0.0078364780994516
  40     0.4263568222509667
  41     0.0032969468736971
  42     0.0005701591705629
  43    -0.0018563485078487
  44     0.0078070924232363
  45    -0.4265750192773645
  46    -0.0033021244282102
  47     0.0005628311323700
  48    -0.0018637887787402
 Ene=    0.468898
 Spin=  Alpha
 Occup=    0.000000
   1     0.0773138293151581
   2    -0.1694939324854005
   3    -4.6038637442917443
   4     0.2000534423332836
   5     0.0001248366923429
   6     0.0000367209835114
   7     3.2657388213348559
   8     0.0006915773670204
   9     0.0019256436146137
  10    -0.0027297319308081
  11    -0.0000001647988893
  12    -0.0171975746824890
  13     0.0093648117689015
  14     0.0000320312177007
  15    -0.0704692739642486
  16     0.0926203328183011
  17     4.6612235357898264
  18     0.1185585575579641
  19    -0.0000172748054289
  20     0.0001260440684900
  21     3.3443278380906714
  22     0.0002263348695604
  23     0.0024626525134423
  24     0.0125489905105160
  25    -0.0000028351232641
  26    -0.0106287524000955
  27    -0.0238045827679265
  28    -0.0000338750538701
  29    -0.0956841494511075
  30    -0.2295915004507433
  31     0.0054841577642911
  32    -0.0027854940486701
  33    -0.0027113607942972
  34    -0.0957263987086780
  35    -0.2295783599206764
  36     0.0054757402215925
  37     0.0028070503424811
  38     0.0026960524717716
  39     0.0644000882936017
  40     0.2683137677960384
  41     0.0176295984732429
  42    -0.0030308834687322
  43     0.0028517785965599
  44     0.0653828319865493
  45     0.2662928722977814
  46     0.0175282338684967
  47     0.0030050685682420
  48    -0.0027994371664907
 Ene=    0.564196
 Spin=  Alpha
 Occup=    0.000000
   1    -0.0761783022149716
   2     0.6985817539952552
   3    -0.6476605822914706
   4    -0.3525718991512737
   5    -0.0002262717241017
   6    -0.0000570432518622
   7     0.6744600139963638
   8    -0.0000513932471597
   9     0.0008015697354178
  10    -0.0283726156558405
  11     0.0000646983001463
  12     0.0054025895459149
  13     0.0452506048865991
  14    -0.0000097733765861
  15    -0.1191925818376343
  16     0.9783062002705161
  17    -1.0523274602301083
  18     0.3896185375671683
  19    -0.0001678343102714
  20     0.0004134155395975
  21    -0.5963315597350907
  22     0.0005068530464886
  23    -0.0010236218359718
  24    -0.0287332673365159
  25     0.0000272713121579
  26    -0.0126572957249520
  27     0.0448578605754035
  28     0.0000797636636049
  29    -0.0529681129391114
  30     0.2480969720134780
  31     0.0355752541710274
  32    -0.0016626138246789
  33    -0.0020234311438416
  34    -0.0527503404475654
  35     0.2480027153038717
  36     0.0355964417391983
  37     0.0016471611800540
  38     0.0021083688576731
  39     0.0545118691262867
  40     0.2016788531338887
  41    -0.0341193423083803
  42     0.0045395553027743
  43    -0.0042744038411892
  44     0.0531237628277920
  45     0.2031315089210404
  46    -0.0340295247588013
  47    -0.0045263885932076
  48     0.0041982796553087
 Ene=    0.680576
 Spin=  Alpha
 Occup=    0.000000
   1    -0.0323504372517385
   2     0.3962784657955006
   3    -1.9175563217568403
   4     0.0961058048297931
   5    -0.0003720816734932
   6     0.0004634349419835
   7    -0.5666525953007456
   8     0.0004842895100873
   9    -0.0006779585786770
  10    -0.0069188106555191
  11    -0.0000226625500179
  12     0.0550178610969395
  13    -0.0197504593524670
  14    -0.0000604979056029
  15    -0.0563819262830011
  16     0.5836529850303370
  17    -1.6137648575459085
  18    -0.1478344455419303
  19    -0.0000252117174167
  20    -0.0000476649219739
  21     1.2667466626593038
  22    -0.0002686718879152
  23     0.0010517949259288
  24    -0.0109025746962151
  25     0.0000187577267002
  26    -0.0636323098666921
  27    -0.0152166924231039
  28     0.0000581994949947
  29     0.5036441045326198
  30     0.3837974141331880
  31    -0.0125125005867668
  32     0.0230596868446136
  33     0.0169378938205191
  34     0.5039071274881274
  35     0.3837431600761798
  36    -0.0124853233363493
  37    -0.0231004083250570
  38    -0.0168958879027091
  39     0.5848806325696523
  40     0.5336247116264929
  41     0.0299021531404210
  42    -0.0191799221980990
  43     0.0143182328394752
  44     0.5849377718498874
  45     0.5330476456159613
  46     0.0298999832802670
  47     0.0191672598736704
  48    -0.0142695342464005
 Ene=    0.708613
 Spin=  Alpha
 Occup=    0.000000
   1     0.0647601710094241
   2    -0.8874592890684897
   3     4.0323079932652650
   4    -0.1837648583061535
   5    -0.0017118905054816
   6     0.0013867584154908
   7    -0.6525522630419963
   8     0.0016562559904727
   9     0.0024497830897813
  10     0.0182479798544194
  11     0.0000599014695462
  12    -0.0742968868094528
  13    -0.0118860128277031
  14    -0.0004502497216110
  15    -0.0391654273732839
  16     0.6454470546148241
  17    -3.8509841199479089
  18    -0.2794388834280627
  19     0.0010580377663311
  20     0.0001257610900037
  21    -0.4106388632591786
  22     0.0019583958136364
  23    -0.0055013855780427
  24    -0.0108986736406897
  25    -0.0003079164975413
  26    -0.0689758473532902
  27     0.0076632008673845
  28     0.0007471729677023
  29    -0.5286005710598511
  30    -0.3161156867203080
  31     0.0181269722899454
  32    -0.0081215623560820
  33    -0.0080241063037583
  34    -0.5251832052065923
  35    -0.3163669462387977
  36     0.0183012903560013
  37     0.0077669221122317
  38     0.0084937193266590
  39     0.4436433288534693
  40     0.3598419047702742
  41     0.0304730766740663
  42     0.0012640830536435
  43     0.0008432696159722
  44     0.4345964830684987
  45     0.3622713413570697
  46     0.0314176679521310
  47    -0.0013697119248806
  48    -0.0008860797930905
 Ene=    0.718772
 Spin=  Alpha
 Occup=    0.000000
   1    -0.0002789036848758
   2     0.0043472589165383
   3    -0.0267381015444281
   4     0.0012604297985686
   5    -0.2438650663703279
   6     0.2233953360251030
   7     0.0057671825999127
   8     0.2779941128455999
   9     0.4517376374572499
  10    -0.0000863086808535
  11    -0.0151881867397689
  12     0.0003308247408397
  13     0.0000684567629257
  14    -0.0800323341025626
  15     0.0003180803503878
  16    -0.0046964053004855
  17     0.0274595207253356
  18     0.0009872602790580
  19     0.3737380339489051
  20     0.4255098764588860
  21     0.0068342020020807
  22     0.0616595420605622
  23    -1.2206076977342897
  24     0.0000362637287723
  25    -0.0272364501428002
  26     0.0005326321090666
  27    -0.0000344781394804
  28     0.0920357946971230
  29    -0.2627407739799686
  30     0.1424985409837831
  31    -0.0046383518023048
  32    -0.0268617916903277
  33     0.0252202349940735
  34     0.2681917327484005
  35    -0.1393226141112341
  36     0.0043296937660051
  37    -0.0269089487083844
  38     0.0251635765996808
  39     0.5965447075389888
  40    -0.0970001802238995
  41    -0.0528240293887065
  42     0.0030356445311658
  43    -0.0035725929444952
  44    -0.6015602651209814
  45     0.0926482358660359
  46     0.0526256502922702
  47     0.0031182211572603
  48    -0.0034773921981857
 Ene=    0.721539
 Spin=  Alpha
 Occup=    0.000000
   1     0.0001168484619271
   2    -0.0019655766627190
   3     0.0144915496314766
   4    -0.0007188258460624
   5     0.0574824680373798
   6    -0.0501306213236160
   7    -0.0035111140898061
   8     0.0486016498362702
   9    -0.3161206922735094
  10    -0.0000309079679972
  11    -0.0461341410317089
  12    -0.0001730948823388
  13     0.0000224296341901
  14     0.0213977609218120
  15    -0.0001819139068677
  16     0.0025030056929036
  17    -0.0147574317920676
  18    -0.0010310371376670
  19     0.5359871377398345
  20     0.6375072773625579
  21    -0.0041241586616813
  22    -1.0764250674920302
  23    -0.1569259005133647
  24     0.0000308522983959
  25     0.0519286163165946
  26    -0.0002681950931708
  27    -0.0000112346601712
  28    -0.0631099485708542
  29     0.1435457639286938
  30     0.2139016819292730
  31     0.0353830234254308
  32     0.0078441771506552
  33    -0.0268862100578315
  34    -0.1461525544815714
  35    -0.2153749620727720
  36    -0.0351859558802216
  37     0.0078550700759365
  38    -0.0269060118211957
  39    -0.4900553133066949
  40     0.0991076734055008
  41     0.0366938926616264
  42     0.0168077641704194
  43     0.0241100279120996
  44     0.4922131685960041
  45    -0.0971963292608213
  46    -0.0366845662135811
  47     0.0167498257382663
  48     0.0240791683416258
 Ene=    0.778896
 Spin=  Alpha
 Occup=    0.000000
   1    -0.0000267963905701
   2     0.0002203485567485
   3    -0.0021117327494060
   4     0.0003249312246814
   5     0.6115924655874690
   6    -0.7521496139464980
   7    -0.0000456174582703
   8    -0.5919039597607375
   9     1.0779421466972425
  10     0.0000282739833839