[Molden Format]
[Atoms] Angs
 c       1                    6  7.495000000000e-01  0.000000000000e+00 -1.000000000000e-03
 c       2                    6 -6.189000000000e-01 -2.000000000000e-04 -1.900000000000e-03
 h       3                    1  1.306500000000e+00  7.273000000000e-01  6.034000000000e-01
 h       4                    1  1.307600000000e+00 -7.271000000000e-01 -6.047000000000e-01
 h       5                    1 -1.283300000000e+00 -6.982000000000e-01  5.855000000000e-01
 h       6                    1 -1.281500000000e+00  6.983000000000e-01 -5.908000000000e-01
[GTO]
1
 s           5
      1.238401693800e+03      5.517365048110e-03
      1.862900499200e+02      4.108882855595e-02
      4.225117634600e+01      1.822538212649e-01
      1.167655793200e+01      4.682845943743e-01
      3.593050648200e+00      4.457581733600e-01
 s           1
      4.024514736300e-01      1.000000000000e+00
 s           1
      1.309018266800e-01      1.000000000000e+00
 p           3
      9.468097062100e+00      5.688833201104e-02
      2.010354514200e+00      3.129405933647e-01
      5.477100470700e-01      7.606501650914e-01
 p           1
      1.526861379500e-01      1.000000000000e+00
 d           1
      8.000000000000e-01      1.000000000000e+00

2
 s           5
      1.238401693800e+03      5.517365048110e-03
      1.862900499200e+02      4.108882855595e-02
      4.225117634600e+01      1.822538212649e-01
      1.167655793200e+01      4.682845943743e-01
      3.593050648200e+00      4.457581733600e-01
 s           1
      4.024514736300e-01      1.000000000000e+00
 s           1
      1.309018266800e-01      1.000000000000e+00
 p           3
      9.468097062100e+00      5.688833201104e-02
      2.010354514200e+00      3.129405933647e-01
      5.477100470700e-01      7.606501650914e-01
 p           1
      1.526861379500e-01      1.000000000000e+00
 d           1
      8.000000000000e-01      1.000000000000e+00

3
 s           3
      1.301070100000e+01      3.348548481299e-02
      1.962257200000e+00      2.347218708812e-01
      4.445379600000e-01      8.137702852596e-01
 s           1
      1.219496200000e-01      1.000000000000e+00
 p           1
      8.000000000000e-01      1.000000000000e+00

4
 s           3
      1.301070100000e+01      3.348548481299e-02
      1.962257200000e+00      2.347218708812e-01
      4.445379600000e-01      8.137702852596e-01
 s           1
      1.219496200000e-01      1.000000000000e+00
 p           1
      8.000000000000e-01      1.000000000000e+00

5
 s           3
      1.301070100000e+01      3.348548481299e-02
      1.962257200000e+00      2.347218708812e-01
      4.445379600000e-01      8.137702852596e-01
 s           1
      1.219496200000e-01      1.000000000000e+00
 p           1
      8.000000000000e-01      1.000000000000e+00

6
 s           3
      1.301070100000e+01      3.348548481299e-02
      1.962257200000e+00      2.347218708812e-01
      4.445379600000e-01      8.137702852596e-01
 s           1
      1.219496200000e-01      1.000000000000e+00
 p           1
      8.000000000000e-01      1.000000000000e+00


[5D]
[7F]
[9G]
[MO]
 Ene=  -11.258767
 Spin=  Alpha
 Occup=    2.000000
   1    -0.0496179141252006
   2     0.0006315836086672
   3    -0.0043809751466870
   4    -0.0015245712328679
   5    -0.0000001172956991
   6    -0.0000010519800566
   7     0.0021437948429132
   8     0.0000008292943241
   9     0.0000014202371176
  10    -0.0003758661106887
  11     0.0000009038000593
  12     0.0001680166373360
  13     0.0003817816965491
  14    -0.0000003387103788
  15    -0.9897192318391408
  16    -0.0346936336731759
  17     0.0220710547790295
  18     0.0005233741752223
  19    -0.0000004302775311
  20     0.0000010148910203
  21     0.0006263944546056
  22     0.0000016192315173
  23    -0.0000011570638787
  24     0.0008043511480070
  25    -0.0000006896882499
  26     0.0011422648898676
  27    -0.0009479345826316
  28    -0.0000022173408391
  29    -0.0001114860648213
  30    -0.0007877120375039
  31     0.0004324449780727
  32     0.0001208708524684
  33     0.0001053811845465
  34    -0.0001112635869766
  35    -0.0007873657360431
  36     0.0004325347635682
  37    -0.0001207565572011
  38    -0.0001047995526545
  39     0.0021295187831934
  40    -0.0046463954529506
  41     0.0006673571367886
  42     0.0010560761981689
  43    -0.0008369411531850
  44     0.0021272293379277
  45    -0.0046470630508987
  46     0.0006644555215375
  47    -0.0010557207448184
  48     0.0008377591525590
 Ene=  -11.246103
 Spin=  Alpha
 Occup=    2.000000
   1    -0.9896417328391681
   2    -0.0354156362307090
   3     0.0238107131316910
   4    -0.0001300117953497
   5    -0.0000002597948864
   6    -0.0000000955595970
   7    -0.0010682034352374
   8    -0.0000010061008820
   9    -0.0000000331001621
  10     0.0006948422495353
  11    -0.0000010783793425
  12    -0.0013746966208390
  13    -0.0005934929275534
  14     0.0000009763882072
  15     0.0494039982390542
  16     0.0039478577791824
  17    -0.0074577396853044
  18     0.0014429924041628
  19     0.0000004055052021
  20     0.0000008388353648
  21    -0.0020907535054847
  22     0.0000032060547309
  23    -0.0000041837515008
  24    -0.0004474017720390
  25     0.0000010232045745
  26    -0.0001307402181086
  27     0.0004984494630441
  28     0.0000001443134036
  29     0.0023077932036471
  30    -0.0050820136782170
  31    -0.0006637851211998
  32    -0.0009894163853251
  33    -0.0007723841804439
  34     0.0023075191877040
  35    -0.0050818521650666
  36    -0.0006652554461494
  37     0.0009893566262577
  38     0.0007715362529284
  39    -0.0001754781365893
  40     0.0000274272466346
  41    -0.0004140898100021
  42    -0.0001392635558629
  43     0.0001166662724566
  44    -0.0001772369421080
  45     0.0000211277806033
  46    -0.0004153228201357
  47     0.0001396470544101
  48    -0.0001176149218873
 Ene=   -1.009215
 Spin=  Alpha
 Occup=    2.000000
   1    -0.2006962948204765
   2     0.3885065157703618
   3     0.1165146598540922
   4    -0.1165894725062563
   5    -0.0000043025140049
   6    -0.0000768752721640
   7    -0.0191681510712103
   8    -0.0000029322870818
   9    -0.0000185626796529
  10    -0.0076569090959793
  11     0.0000191184822348
  12     0.0030666627157826
  13     0.0151575752564658
  14     0.0000029058826895
  15    -0.1973763280699253
  16     0.3882116363622816
  17     0.1245753863843365
  18     0.1195060369111830
  19     0.0000348792773002
  20     0.0000570498217184
  21     0.0261112620119444
  22     0.0000053156448252
  23     0.0000158882902450
  24    -0.0081017122626765
  25     0.0000182865818660
  26    -0.0025717741637184
  27     0.0163566000125844
  28     0.0000070644070380
  29     0.1083774834567920
  30     0.0106880336506020
  31    -0.0090229265094700
  32    -0.0097962860673417
  33    -0.0087014337446505
  34     0.1083545763393514
  35     0.0106812591178377
  36    -0.0090360118889685
  37     0.0097913626976020
  38     0.0086883056751324
  39     0.0974264902448472
  40     0.0111908659817936
  41     0.0085670849456748
  42     0.0079294561652533
  43    -0.0073380447455162
  44     0.0974774316488552
  45     0.0111918061418381
  46     0.0085517740773080
  47    -0.0079411843391823
  48     0.0073604730405386
 Ene=   -0.782036
 Spin=  Alpha
 Occup=    2.000000
   1    -0.1499825078053201
   2     0.3010689505735560
   3     0.1366382674415733
   4     0.1451756737690456
   5     0.0000308611581071
   6     0.0001092922260061
   7     0.0525772380623105
   8     0.0000043322133869
   9     0.0000362162908136
  10     0.0000050822988645
  11    -0.0000086911053979
  12     0.0088403913204053
  13    -0.0077869465063278
  14    -0.0000063325451716
  15     0.1545909440687269
  16    -0.3144100866532554
  17    -0.1460041158211841
  18     0.1688021951859118
  19     0.0000001018700496
  20     0.0001339550732383
  21     0.0590093847881585
  22     0.0000099284418899
  23     0.0000400989721549
  24     0.0007326958056519
  25     0.0000069352132837
  26     0.0085443215196604
  27     0.0064753838185853
  28    -0.0000102113109269
  29     0.1833092067161161
  30     0.0357665831509225
  31    -0.0067197260861764
  32    -0.0120469933796550
  33    -0.0114942840939462
  34     0.1832870193894056
  35     0.0357616274959695
  36    -0.0067381671732045
  37     0.0120435023455686
  38     0.0114844049617963
  39    -0.1949268044079798
  40    -0.0391331526543762
  41    -0.0084551473797248
  42    -0.0121289642611489
  43     0.0118044761477348
  44    -0.1948340672187735
  45    -0.0391291846650024
  46    -0.0084130294663309
  47     0.0121298088268113
  48    -0.0118199230665656
 Ene=   -0.596934
 Spin=  Alpha
 Occup=    2.000000
   1     0.0000170242093060
   2    -0.0000175326758978
   3    -0.0000868098058187
   4    -0.0009786183578813
   5     0.3336958281769453
   6     0.1998597288498176
   7    -0.0003801231419964
   8     0.1413031097850949
   9     0.0735700350436384
  10    -0.0000009939325388
  11     0.0088809925476581
  12    -0.0000107851004257
  13     0.0000248412885733
  14     0.0071400077821851
  15    -0.0000238528524363
  16     0.0000725701388803
  17    -0.0000971257602729
  18     0.0008048363617070
  19     0.2125754214832055
  20    -0.0319551302519534
  21     0.0002566985473970
  22     0.0893257593824241
  23    -0.0001987285038894
  24     0.0000110229953506
  25     0.0128728617727274
  26     0.0000085104497287
  27     0.0000070523154352
  28     0.0036755352519119
  29     0.2755747714696033
  30     0.0896028026747839
  31    -0.0117202903432895
  32    -0.0084211677763619
  33    -0.0089043100219435
  34    -0.2762824554326848
  35    -0.0898313088560930
  36     0.0117347964457528
  37    -0.0084554835569999
  38    -0.0089237630407084
  39    -0.1293135931708390
  40    -0.0489800239950899
  41    -0.0063464584769348
  42    -0.0024803484679456
  43     0.0049548099918038
  44     0.1287143732262968
  45     0.0487906625825573
  46     0.0063277167904365
  47    -0.0024529314272898
  48     0.0049381129315208
 Ene=   -0.590279
 Spin=  Alpha
 Occup=    2.000000
   1    -0.0020821504220463
   2     0.0163336110977383
   3    -0.0471133215119350
   4    -0.4046126886686076
   5    -0.0008493738286399
   6    -0.0008765947527253
   7    -0.1474855770911297
   8    -0.0003807128033913
   9    -0.0003510982597414
  10    -0.0053409687529439
  11     0.0000093356101978
  12    -0.0085799451436377
  13     0.0184250535677021
  14    -0.0000165706908933
  15    -0.0202756268244546
  16     0.0545825672233566
  17    -0.0217555376138513
  18     0.3989045191321900
  19    -0.0001102421943617
  20     0.0000204334857153
  21     0.1466907720928483
  22    -0.0000306851251540
  23    -0.0000391866161786
  24    -0.0039211380991077
  25    -0.0000080769357654
  26     0.0067992386020153
  27     0.0150807797615889
  28    -0.0000393027319398
  29    -0.1749681766552325
  30    -0.0555152464797713
  31    -0.0008455259740397
  32     0.0094531965475837
  33     0.0084799160033404
  34    -0.1735591199770285
  35    -0.0550797703020470
  36    -0.0008899186739893
  37    -0.0094072117292203
  38    -0.0084406003367281
  39    -0.1645975723786102
  40    -0.0524478686451337
  41    -0.0008644712929786
  42    -0.0089920012281687
  43     0.0080672570849018
  44    -0.1642920696108371
  45    -0.0523993702178972
  46    -0.0008178060036844
  47     0.0089756507131132
  48    -0.0080693539918902
 Ene=   -0.557857
 Spin=  Alpha
 Occup=    2.000000
   1    -0.0000312389174154
   2     0.0000942033081304
   3    -0.0000644040057913
   4    -0.0006777708728630
   5     0.0631620771424882
   6     0.2090474145011670
   7    -0.0002654800766362
   8     0.0428207490511107
   9     0.1081537072342920
  10    -0.0000165739547835
  11    -0.0094137596489070
  12     0.0000014661011929
  13     0.0000231366809763
  14     0.0149218167405595
  15    -0.0000562214611628
  16     0.0001358110968179
  17     0.0000515234352020
  18     0.0002685809072658
  19    -0.2571678040604353
  20     0.2876765999261012
  21     0.0001005901748581
  22    -0.1336728860716796
  23     0.1391375045746869
  24    -0.0000143726196102
  25     0.0012905898613201
  26     0.0000386010878107
  27     0.0000386122629672
  28     0.0174347070881777
  29     0.1295087093448931
  30     0.0364389483108110
  31    -0.0056547429362795
  32    -0.0059993381519214
  33    -0.0013979596391696
  34    -0.1299085808347621
  35    -0.0365726854904041
  36     0.0056512623645823
  37    -0.0060196640573566
  38    -0.0014106912459698
  39     0.2681591971105648
  40     0.0939766108968876
  41     0.0130402952818390
  42     0.0081425238417052
  43    -0.0059372480922788
  44    -0.2686736899441196
  45    -0.0941654238522404
  46    -0.0130209538520409
  47     0.0081800424978824
  48    -0.0059883137975676
 Ene=   -0.275923
 Spin=  Alpha
 Occup=    2.000000
   1    -0.0000198338983677
   2     0.0000505574084917
   3     0.0000194609120131
   4     0.0000600349305212
   5     0.2725593317097303
   6    -0.2628090390750552
   7     0.0001255950673091
   8     0.2591876042467653
   9    -0.2896795344689547
  10     0.0000329745626023
  11     0.0292242355115553
  12     0.0000165874822131
  13    -0.0000258163721531
  14     0.0178474076138512
  15     0.0000077174081839
  16    -0.0000093862720279
  17    -0.0000520049359605
  18     0.0002394272876777
  19    -0.2634522250165977
  20    -0.2555233112019212
  21     0.0003028364733990
  22    -0.2504016008013917
  23    -0.2882651458724909
  24    -0.0000391354432519
  25    -0.0300262813778401
  26     0.0000192225261751
  27     0.0000329236689256
  28     0.0207115349564829
  29     0.1195764309972464
  30     0.1159211573691043
  31     0.0012558988293339
  32     0.0057626315220446
  33    -0.0112783152831421
  34    -0.1196000258253169
  35    -0.1159728802672212
  36    -0.0012456113844472
  37     0.0057598300616458
  38    -0.0112801887291033
  39     0.1342342625219384
  40     0.1392342203269138
  41     0.0006271414370116
  42    -0.0052376308949596
  43    -0.0101277076589230
  44    -0.1342919662646017
  45    -0.1392613002724385
  46    -0.0006006949231647
  47    -0.0052247661699464
  48    -0.0101387728022310
 Ene=    0.062438
 Spin=  Alpha
 Occup=    0.000000
   1    -0.0000203549576199
   2     0.0000454580574440
   3     0.0001142167759901
   4     0.0000803476298656
   5     0.1867346102297438
   6    -0.2650123212361264
   7     0.0001537427012312
   8     0.2729918141696359
   9    -0.3968581251163000
  10    -0.0000223328136835
  11    -0.0194584047793239
  12    -0.0000131948630765
  13     0.0000176900824320
  14    -0.0156902381426806
  15    -0.0000006862342969
  16     0.0000160673758063
  17    -0.0001016401796707
  18    -0.0001798887127802
  19     0.2071948730118198
  20     0.2721791159866681
  21    -0.0002579848746548
  22     0.3179333954665593
  23     0.4055035542599457
  24    -0.0000307420633694
  25    -0.0195773496579286
  26     0.0000134823794825
  27     0.0000212135418909
  28     0.0143839947537315
  29    -0.1062389940088858
  30    -0.1621344729188009
  31    -0.0028929279197161
  32     0.0102946727673525
  33    -0.0097728535215203
  34     0.1062273026874305
  35     0.1620436771029496
  36     0.0028984862423904
  37     0.0102944428451149
  38    -0.0097694345551171
  39     0.1075266593817166
  40     0.1837694359459179
  41    -0.0014420728567338
  42     0.0103376821531884
  43     0.0102931593761575
  44    -0.1075738126114480
  45    -0.1838259115593473
  46     0.0014327789469811
  47     0.0103401155571832
  48     0.0102832800908799
 Ene=    0.212044
 Spin=  Alpha
 Occup=    0.000000
   1     0.0119319049567846
   2    -0.0490653717266333
   3    -0.3632770305607985
   4    -0.0808020370548393
   5    -0.0000431006240950
   6    -0.0000422294842438
   7    -0.2773247073524027
   8    -0.0001569228073907
   9    -0.0002214352635012
  10     0.0024324256446468
  11    -0.0000075878490181
  12    -0.0075377750304705
  13    -0.0054309373765739
  14     0.0000013118314151
  15     0.1147245617640401
  16    -0.1755097273349746
  17    -2.2640028931653893
  18     0.1629744880767812
  19    -0.0000507799078940
  20     0.0001820813338309
  21     0.7280105425536945
  22    -0.0002790991731418
  23     0.0008708743553844
  24     0.0006555301897192
  25     0.0000005795595029
  26     0.0056535939313806
  27    -0.0009852604689692
  28    -0.0000074267891118
  29    -0.0277868288357099
  30     0.3601495506231950
  31    -0.0027396026212415
  32    -0.0013477976020298
  33    -0.0026520660763504
  34    -0.0277831794769178
  35     0.3599272371934951
  36    -0.0027392712176287
  37     0.0013475420690005
  38     0.0026442223179572
  39     0.0072767040585104
  40     1.5659252190022837
  41     0.0022794547011997
  42     0.0051546824145194
  43    -0.0040733163710458
  44     0.0073062550563633
  45     1.5658343398100887
  46     0.0022671606487333
  47    -0.0051593614882410
  48     0.0040797780746171
 Ene=    0.218457
 Spin=  Alpha
 Occup=    0.000000
   1     0.1204830273824181
   2    -0.1674196275543647
   3    -2.6039137808169288
   4    -0.1307904674917680
   5     0.0000044625970752
   6    -0.0001282916326132
   7    -0.4840763860222033
   8     0.0000142117960667
   9    -0.0005200184079023
  10     0.0003649172244162
  11    -0.0000034200906109
  12    -0.0026206051516111
  13     0.0006785628653335
  14     0.0000077170935100
  15    -0.0323165044918201
  16     0.0033240069726414
  17     0.8487116299246112
  18     0.0051805460147302
  19    -0.0000806445666535
  20     0.0000744631105721
  21     0.0943070436884374
  22    -0.0003239803178182
  23     0.0003599009865055
  24     0.0028714545417498
  25    -0.0000128625553376
  26     0.0067596040320282
  27    -0.0069862200774220
  28    -0.0000042878170646
  29     0.0199090569869831
  30     1.5992563730789813
  31    -0.0041357662084343
  32    -0.0035942851111021
  33    -0.0018064534336812
  34     0.0199029286428780
  35     1.5990800910369036
  36    -0.0041401818036160
  37     0.0035954865742492
  38     0.0017977192911674
  39    -0.0408183996169912
  40    -0.3135989520024814
  41     0.0008091710742051
  42    -0.0009567427394875
  43    -0.0012575645175408
  44    -0.0408100593006401
  45    -0.3124020704161593
  46     0.0008139214278300
  47     0.0009529891923364
  48     0.0012666418092605
 Ene=    0.260842
 Spin=  Alpha
 Occup=    0.000000
   1    -0.0000091501764944
   2    -0.0000326420511855
   3     0.0013748192114430
   4     0.0002487800892180
   5    -0.1695377197147253
   6    -0.1766598585090798
   7     0.0007397245293967
   8    -0.7282415998388430
   9    -1.0142864571881347
  10    -0.0000108979330388
  11    -0.0109579805243918
  12    -0.0000051578024175
  13     0.0000053865635554
  14     0.0040945447021424
  15    -0.0000158363329746
  16     0.0000807973311420
  17    -0.0004619500691942
  18    -0.0001556377865718
  19    -0.1478071377265101
  20     0.1373766820508235
  21    -0.0012646045560786
  22    -0.3859122994999638
  23     0.8156934333461784
  24    -0.0000098155530088
  25    -0.0104559970219779
  26    -0.0000008418569000
  27     0.0000053354865654
  28    -0.0061222696768012
  29    -0.0147343914097922
  30     1.4650677980670244
  31    -0.0080239500968100
  32    -0.0045921601315345
  33    -0.0057715824749492
  34     0.0146618922794544
  35    -1.4660555165054452
  36     0.0080436322670013
  37    -0.0045889234020178
  38    -0.0057577967792042
  39     0.0099714351553968
  40    -1.0270839923076427
  41    -0.0048044547183440
  42    -0.0026661369899794
  43     0.0032844158817766
  44    -0.0099744886741029
  45     1.0269558145921036
  46     0.0048203470299682
  47    -0.0026647127530081
  48     0.0032826019762928
 Ene=    0.273602
 Spin=  Alpha
 Occup=    0.000000
   1    -0.0000000906384063
   2     0.0000790105705682
   3    -0.0020415203659658
   4    -0.0000168040896515
   5    -0.1450896526599190
   6    -0.1027813714575512
   7     0.0006881797741272
   8    -1.0259047913891182
   9    -0.3447612691915146
  10     0.0000044618542209
  11     0.0041627428452937
  12    -0.0000036636387783
  13     0.0000061549199711
  14    -0.0146012617762351
  15     0.0000097341058278
  16    -0.0000853990420136
  17     0.0010608508144182
  18     0.0001784530258430
  19     0.1881285257431010
  20    -0.1748240698138638
  21     0.0013529804472616
  22     1.0964496690991341
  23    -0.5922191680145902
  24    -0.0000026434207353
  25     0.0005938337120379
  26    -0.0000128683070163
  27     0.0000041786248593
  28    -0.0104663020602986
  29    -0.0205449164319454
  30     1.1713358996102454
  31    -0.0084218172716757
  32    -0.0045952772912778
  33    -0.0032458550647280
  34     0.0206323200551699
  35    -1.1701252743376620
  36     0.0084128719025623
  37    -0.0045920986466816
  38    -0.0032396717639495
  39    -0.0217913479465160
  40     1.4494089348184651
  41     0.0092046497343719
  42     0.0037780038154739
  43    -0.0043486535466594
  44     0.0217690630543963
  45    -1.4495189661319074
  46    -0.0092275255087152
  47     0.0037691317728566
  48    -0.0043560303603399
 Ene=    0.467224
 Spin=  Alpha
 Occup=    0.000000
   1    -0.0745248784857037
   2     0.1552797672293972
   3     4.5225807982356683
   4    -0.1609308406101458
   5    -0.0001112394557337
   6    -0.0000211627311530
   7    -3.3100393825903280
   8    -0.0006623668735688
   9    -0.0020150179102516
  10     0.0051926840418188
  11    -0.0000101035157726
  12     0.0195927820679906
  13    -0.0181206949314086
  14    -0.0000387418981133
  15     0.0756805048718876
  16    -0.1273850751146261
  17    -4.6217422126473435
  18    -0.1556873279195842
  19     0.0000202675041365
  20    -0.0001511707900581
  21    -3.2419575055509489
  22    -0.0002515773912232
  23    -0.0023159305387613
  24    -0.0078369531505973
  25    -0.0000013776628054
  26     0.0096958378469555
  27     0.0163460121314603
  28     0.0000285505171116
  29     0.1358084758102845
  30     0.2170446883129912
  31    -0.0093533408786385
  32     0.0047455060121064
  33     0.0031622936646315
  34     0.1358641639953378
  35     0.2170017608279671
  36    -0.0093421630461683
  37    -0.0047662391110406
  38    -0.0031531230914602
  39    -0.0411861106963526
  40    -0.2637711262657769
  41    -0.0126266924106609
  42     0.0020171980016067
  43    -0.0007129775699491
  44    -0.0420241868633570
  45    -0.2619326086946872
  46    -0.0125421307432319
  47    -0.0019972921897016
  48     0.0006755106117883
 Ene=    0.565910
 Spin=  Alpha
 Occup=    0.000000
   1     0.0901160311914112
   2    -0.7561886717158688
   3     0.5110429639749816
   4     0.3959606129266768
   5     0.0002427521015789
   6     0.0000699861202796
   7    -0.5711557899117407
   8     0.0000039921795989
   9    -0.0007138030428125
  10     0.0299663282778630
  11    -0.0000633099610892
  12    -0.0055386372416146
  13    -0.0432161630457834
  14     0.0000169378286852
  15     0.1042733891217527
  16    -0.9060178833172273
  17     1.1075423530147497
  18    -0.3608116595553476
  19     0.0001842914768151
  20    -0.0003727518465788
  21     0.7435145856700945
  22    -0.0004875808467504
  23     0.0010439798941747
  24     0.0323853023829456
  25    -0.0000345191497121
  26     0.0119239262919860
  27    -0.0459986854799456
  28    -0.0000817057505107
  29     0.0535856920714952
  30    -0.2474623048866387
  31    -0.0338565662540517
  32     0.0011817745934169
  33     0.0022665284664570
  34     0.0533084068899424
  35    -0.2473859467934185
  36    -0.0338860095086419
  37    -0.0011662038397533
  38    -0.0023514260991910
  39    -0.0461504952576831
  40    -0.1645170627495358
  41     0.0374368072765195
  42    -0.0042481436315795
  43     0.0043719062186410
  44    -0.0447010914982506
  45    -0.1661907992269906
  46     0.0373435410479740
  47     0.0042355612459223
  48    -0.0042905078191596
 Ene=    0.671027
 Spin=  Alpha
 Occup=    0.000000
   1    -0.0616241325336849
   2     0.8218485669681741
   3    -4.0595015669665937
   4     0.1872665811888334
   5    -0.0000741924697002
   6     0.0002765167286624
   7     0.0242352260858081
   8     0.0001652239551160
   9    -0.0005138768503268
  10    -0.0184016688996826
  11    -0.0000320561179212
  12     0.0842182446213575
  13    -0.0108756903046444
  14    -0.0000129778563473
  15    -0.0355134248455853
  16     0.1889700706037586
  17     0.8437190342961194
  18     0.0196766619936993
  19    -0.0001631231610613
  20     0.0001999270356281
  21     1.4885222032549166
  22    -0.0002206443169067
  23     0.0013997869830112
  24    -0.0075486268549933
  25     0.0000614304203232
  26    -0.0176137078500519
  27    -0.0167095532065357
  28    -0.0000678589548904
  29     0.6910604598499854
  30     0.5100278555167541
  31    -0.0190562890697668
  32     0.0207850968128294
  33     0.0169447115851587
  34     0.6908916347516524
  35     0.5098809384454162
  36    -0.0190520945118107
  37    -0.0207743994508659
  38    -0.0169820386839991
  39     0.2598630271028921
  40     0.3100858784796971
  41     0.0097789421798886
  42    -0.0153681851820762
  43     0.0089557074382718
  44     0.2609253790395971
  45     0.3091866144319524
  46     0.0096139625451261
  47     0.0153880018149348
  48    -0.0089430126820757
 Ene=    0.719586
 Spin=  Alpha
 Occup=    0.000000
   1     0.0466057681996197
   2    -0.5897739648929287
   3     2.4786159459037176
   4    -0.1276994906270115
   5    -0.0104506471879890
   6     0.0106119074742274
   7    -0.7367687236286130
   8     0.0150319536584805
   9     0.0112433922631253
  10     0.0099849057704922
  11    -0.0001056676946390
  12    -0.0318329128095104
  13    -0.0241251269074431
  14    -0.0024768264339738
  15    -0.0590434793380695
  16     0.8292870839338580
  17    -3.9416031363165058
  18    -0.2860010275470514
  19    -0.0005584930336142
  20    -0.0004713549878830
  21     0.3119246076917555
  22     0.0151497370985895
  23    -0.0233346600530246
  24    -0.0157668049363075
  25    -0.0006874418673792
  26    -0.0934292926087375
  27    -0.0024428641242526
  28     0.0029000060757041
  29    -0.1748806945985263
  30    -0.1443502994306110
  31     0.0092884110557208
  32     0.0109754015507470
  33     0.0059013572502462
  34    -0.1529913520563781
  35    -0.1431263129041790
  36     0.0111617272064944
  37    -0.0125373869657171
  38    -0.0036037154426927
  39     0.7204659336079998
  40     0.5293256223482588
  41     0.0394717550104401
  42    -0.0131687407860279
  43     0.0132219949611373
  44     0.6814176177768566
  45     0.5323706231963572
  46     0.0430187998164227
  47     0.0126632540165677
  48    -0.0143609082663819
 Ene=    0.721638
 Spin=  Alpha
 Occup=    0.000000
   1     0.0013129391243559
   2    -0.0171847708302119
   3     0.0802964404139569
   4    -0.0041895590053990
   5     0.3309097185405537
   6    -0.3395653185916863
   7    -0.0238794996061429
   8    -0.4797328219670201
   9    -0.4332186929836374
  10     0.0002664497170606
  11     0.0024915437671445
  12    -0.0009067963192843
  13    -0.0007028185223503
  14     0.0847438990991540
  15    -0.0018111532118769
  16     0.0254809332188711
  17    -0.1230911519401961
  18    -0.0081648125895070
  19     0.0399090967659306
  20     0.0138376366704959
  21     0.0035560656882615
  22    -0.5713770186275526
  23     0.8271446226026129
  24    -0.0004503764370364
  25     0.0248523662129557
  26    -0.0029098607710355
  27    -0.0000622362929167
  28    -0.0965446818701202
  29     0.3701944721797074
  30     0.0170690979170455
  31     0.0335179940205419
  32     0.0261063863832848
  33    -0.0376705188746182
  34    -0.3803355526129061
  35    -0.0258559466340349
  36    -0.0327531847401551
  37     0.0253761887465958
  38    -0.0380031228706089
  39    -0.6525513244647649
  40     0.0671815484567564
  41     0.0587789114229525
  42     0.0078393725625834
  43     0.0221244404029995
  44     0.6937586170381476
  45    -0.0360526586147037
  46    -0.0565766610108730
  47     0.0085175268705622
  48     0.0212212630744171
 Ene=    0.738260
 Spin=  Alpha
 Occup=    0.000000
   1     0.0000403747466320
   2    -0.0003950933179063
   3    -0.0005359370312938
   4     0.0002065073496048
   5     0.3627234998432121
   6    -0.4269109951195010
   7    -0.0001423862473915
   8    -0.4966568716695761
   9     0.5746060067789919
  10     0.0000791485040110
  11     0.0565278320816532
  12    -0.0000040433890934
  13    -0.0000777311884907
  14    -0.0047241074483475
  15    -0.0000388637773306
  16     0.0006255255553276
  17    -0.0020003157006579
  18     0.0001360506213456
  19    -0.5194413430118683
  20    -0.6285318122324833
  21     0.0017549646761359
  22     0.8156825233292191
  23     0.4060130407787254
  24    -0.0000943123071520
  25    -0.0606156687233088
  26    -0.0000723147113357
  27     0.0000364467353949
  28     0.0417600893177280
  29    -0.0431926865214361
  30    -0.1785303033185469
  31    -0.0296629409113631
  32     0.0103085473784862
  33     0.0021760838376624
  34     0.0432830480447578
  35     0.1785124132885371
  36     0.0296357917526251
  37     0.0102781424580533
  38     0.0022022483087990
  39     0.2183347028985819
  40    -0.1723006382756576
  41    -0.0002749332698890
  42    -0.0185127363070271
  43    -0.0131673966715380
  44    -0.2166946685195584
  45     0.1738710878718293
  46     0.0004089891533078
  47    -0.0184495145832921
  48    -0.0132258798103576
 Ene=    0.772639
 Spin=  Alpha
 Occup=    0.000000
   1     0.0000039193568248
   2    -0.0000639273047789
   3     0.0023112840564286
   4    -0.0003172782870635
   5    -0.4690109193106487
   6     0.5789097157214007
   7    -0.0000844752164941
   8     0.3710777520992112
   9    -0.9802411890429589
  10     0.0000079529408111