[Molden Format]
[Atoms] Angs
 c       1                    6  7.295000000000e-01  0.000000000000e+00 -1.000000000000e-03
 c       2                    6 -6.315000000000e-01 -2.000000000000e-04 -1.900000000000e-03
 h       3                    1  1.287700000000e+00  8.172000000000e-01  4.719000000000e-01
 h       4                    1  1.288600000000e+00 -8.171000000000e-01 -4.731000000000e-01
 h       5                    1 -1.270400000000e+00 -7.987000000000e-01  4.554000000000e-01
 h       6                    1 -1.268900000000e+00  7.988000000000e-01 -4.605000000000e-01
[GTO]
1
 s           5
      1.238401693800e+03      5.517365048110e-03
      1.862900499200e+02      4.108882855595e-02
      4.225117634600e+01      1.822538212649e-01
      1.167655793200e+01      4.682845943743e-01
      3.593050648200e+00      4.457581733600e-01
 s           1
      4.024514736300e-01      1.000000000000e+00
 s           1
      1.309018266800e-01      1.000000000000e+00
 p           3
      9.468097062100e+00      5.688833201104e-02
      2.010354514200e+00      3.129405933647e-01
      5.477100470700e-01      7.606501650914e-01
 p           1
      1.526861379500e-01      1.000000000000e+00
 d           1
      8.000000000000e-01      1.000000000000e+00

2
 s           5
      1.238401693800e+03      5.517365048110e-03
      1.862900499200e+02      4.108882855595e-02
      4.225117634600e+01      1.822538212649e-01
      1.167655793200e+01      4.682845943743e-01
      3.593050648200e+00      4.457581733600e-01
 s           1
      4.024514736300e-01      1.000000000000e+00
 s           1
      1.309018266800e-01      1.000000000000e+00
 p           3
      9.468097062100e+00      5.688833201104e-02
      2.010354514200e+00      3.129405933647e-01
      5.477100470700e-01      7.606501650914e-01
 p           1
      1.526861379500e-01      1.000000000000e+00
 d           1
      8.000000000000e-01      1.000000000000e+00

3
 s           3
      1.301070100000e+01      3.348548481299e-02
      1.962257200000e+00      2.347218708812e-01
      4.445379600000e-01      8.137702852596e-01
 s           1
      1.219496200000e-01      1.000000000000e+00
 p           1
      8.000000000000e-01      1.000000000000e+00

4
 s           3
      1.301070100000e+01      3.348548481299e-02
      1.962257200000e+00      2.347218708812e-01
      4.445379600000e-01      8.137702852596e-01
 s           1
      1.219496200000e-01      1.000000000000e+00
 p           1
      8.000000000000e-01      1.000000000000e+00

5
 s           3
      1.301070100000e+01      3.348548481299e-02
      1.962257200000e+00      2.347218708812e-01
      4.445379600000e-01      8.137702852596e-01
 s           1
      1.219496200000e-01      1.000000000000e+00
 p           1
      8.000000000000e-01      1.000000000000e+00

6
 s           3
      1.301070100000e+01      3.348548481299e-02
      1.962257200000e+00      2.347218708812e-01
      4.445379600000e-01      8.137702852596e-01
 s           1
      1.219496200000e-01      1.000000000000e+00
 p           1
      8.000000000000e-01      1.000000000000e+00


[5D]
[7F]
[9G]
[MO]
 Ene=  -11.290812
 Spin=  Alpha
 Occup=    2.000000
   1    -0.0083770213597055
   2     0.0021610843372255
   3    -0.0058687597171007
   4    -0.0014442205669897
   5    -0.0000001090210986
   6    -0.0000010182331571
   7     0.0021333750198090
   8     0.0000007584264214
   9     0.0000012317818182
  10    -0.0004475971323505
  11     0.0000008620849321
  12     0.0001880624138004
  13     0.0002717734966393
  14    -0.0000004776786073
  15    -0.9909667971373199
  16    -0.0347465306496661
  17     0.0227170445320369
  18     0.0005738269352654
  19    -0.0000004798365650
  20     0.0000007838014146
  21     0.0007557731248729
  22     0.0000013909662166
  23    -0.0000004298729618
  24     0.0011889152319212
  25    -0.0000012849785501
  26     0.0011185876050517
  27    -0.0006826887591553
  28    -0.0000023236810292
  29    -0.0002278678761388
  30    -0.0003734650226216
  31     0.0004698005445294
  32     0.0001757893706392
  33     0.0001054286447302
  34    -0.0002277440213566
  35    -0.0003735791520437
  36     0.0004699676274997
  37    -0.0001758045362128
  38    -0.0001048517417589
  39     0.0021694683265943
  40    -0.0047526076520349
  41     0.0006756277198978
  42     0.0011623865519458
  43    -0.0006642337240061
  44     0.0021674314331732
  45    -0.0047526870605817
  46     0.0006733532304626
  47    -0.0011619991895698
  48     0.0006651324601547
 Ene=  -11.212387
 Spin=  Alpha
 Occup=    2.000000
   1    -0.9907652029323732
   2    -0.0356546283956028
   3     0.0236156009242900
   4    -0.0000333175143116
   5     0.0000000298835028
   6    -0.0000003027943046
   7    -0.0010007727462203
   8    -0.0000016655493143
   9    -0.0000001515704678
  10     0.0010068911530923
  11    -0.0000014974865607
  12    -0.0011519044392632
  13    -0.0003972613871197
  14     0.0000008787390021
  15     0.0081643421422062
  16     0.0026937137509248
  17    -0.0067872938403398
  18     0.0014909265056620
  19     0.0000003575803411
  20     0.0000008592657658
  21    -0.0019235237256239
  22     0.0000035948925659
  23    -0.0000033749534739
  24    -0.0004858145751891
  25     0.0000009350024384
  26    -0.0000987127913163
  27     0.0003980978409397
  28     0.0000000876819115
  29     0.0023327385866929
  30    -0.0051078110042424
  31    -0.0006478122786127
  32    -0.0010832531067980
  33    -0.0006234309984078
  34     0.0023322038757126
  35    -0.0051082375725058
  36    -0.0006490589129825
  37     0.0010833208166912
  38     0.0006223998426579
  39    -0.0001319780046351
  40    -0.0000302276116721
  41    -0.0004261778404790
  42    -0.0001225671058062
  43     0.0000747574668138
  44    -0.0001338575709775
  45    -0.0000360322051868
  46    -0.0004272825189625
  47     0.0001230164436021
  48    -0.0000756244778909
 Ene=   -1.014179
 Spin=  Alpha
 Occup=    2.000000
   1     0.1888933437196934
   2    -0.3578963856158849
   3    -0.1152326921000217
   4     0.1220273684099761
   5     0.0000107187941474
   6     0.0000783458173348
   7     0.0245850204112378
   8     0.0000034175614803
   9     0.0000168639818452
  10     0.0093171294894702
  11    -0.0000200460606209
  12    -0.0023084421848311
  13    -0.0145968864395252
  14    -0.0000021465480236
  15     0.2095485204292478
  16    -0.4181064993814828
  17    -0.1215206825467994
  18    -0.1158095370419326
  19    -0.0000427264149145
  20    -0.0000669791903894
  21    -0.0199146769919047
  22    -0.0000047381842289
  23    -0.0000186281818809
  24     0.0106252171720703
  25    -0.0000220540486415
  26     0.0024852434212387
  27    -0.0147219154227609
  28    -0.0000075545041452
  29    -0.0971543598064498
  30    -0.0097755703664904
  31     0.0087156018871955
  32     0.0103490619726578
  33     0.0059567479261323
  34    -0.0971419691705389
  35    -0.0097752421682701
  36     0.0087248531481232
  37    -0.0103456514969966
  38    -0.0059436930832088
  39    -0.1093632760822989
  40    -0.0120730675342422
  41    -0.0092793084071792
  42    -0.0106291157524782
  43     0.0063042073375740
  44    -0.1094121733484226
  45    -0.0120792001565151
  46    -0.0092641975469032
  47     0.0106410310545720
  48    -0.0063261127528519
 Ene=   -0.784257
 Spin=  Alpha
 Occup=    2.000000
   1    -0.1600181857509468
   2     0.3142091615243149
   3     0.1419021904936237
   4     0.1047820516255355
   5     0.0000127338443682
   6     0.0000879581863410
   7     0.0388280813454598
   8    -0.0000021027349981
   9     0.0000331859851247
  10    -0.0010867299449455
  11    -0.0000041907760435
  12     0.0073504605788353
  13    -0.0060788770544837
  14    -0.0000050942347546
  15     0.1418723294309057
  16    -0.2927803910332031
  17    -0.1340382705831123
  18     0.2112329538386768
  19     0.0000202250838691
  20     0.0001551072667354
  21     0.0754976059568697
  22     0.0000174687625628
  23     0.0000499500907708
  24     0.0005783451235229
  25     0.0000092110972617
  26     0.0083034032793655
  27     0.0094508963114808
  28    -0.0000110752978110
  29     0.1760702367231923
  30     0.0342227217264957
  31    -0.0073102545336643
  32    -0.0138734757803172
  33    -0.0083897953987436
  34     0.1760536435012984
  35     0.0342189383365564
  36    -0.0073249509578208
  37     0.0138709922517501
  38     0.0083789389069761
  39    -0.2010603208145016
  40    -0.0389854977660542
  41    -0.0077248903339935
  42    -0.0150205172425125
  43     0.0089639839797180
  44    -0.2009324575135712
  45    -0.0389741980148130
  46    -0.0076862305736135
  47     0.0150191072912646
  48    -0.0089760299197161
 Ene=   -0.608892
 Spin=  Alpha
 Occup=    2.000000
   1     0.0000523489877972
   2    -0.0001003785748805
   3    -0.0001260924169481
   4    -0.0006613041778845
   5     0.2393421970884337
   6     0.0623179092046675
   7    -0.0002455809049755
   8     0.0924527604192500
   9     0.0298859844066908
  10     0.0000015439365273
  11     0.0074784833872908
  12    -0.0000154019509348
  13     0.0000257246311319
  14    -0.0048383638065705
  15    -0.0000253914161204
  16     0.0000726081607502
  17    -0.0000510003148748
  18     0.0006722049291574
  19     0.3525155951803063
  20    -0.1227955318621748
  21     0.0002213498958878
  22     0.1628942971561353
  23    -0.0414300012320512
  24     0.0000134102878039
  25     0.0113105280218984
  26    -0.0000079844872839
  27    -0.0000087919968457
  28    -0.0061028707257135
  29     0.1580807177337405
  30     0.0426804483700911
  31    -0.0077906300798208
  32    -0.0053867657768687
  33    -0.0050558924262063
  34    -0.1586922581386687
  35    -0.0428689027283468
  36     0.0078034330338694
  37    -0.0054235493072821
  38    -0.0050673580338589
  39    -0.2496727588138556
  40    -0.0793197339477547
  41    -0.0114729557928917
  42    -0.0083641782316234
  43     0.0065639501147047
  44     0.2493280819700035
  45     0.0792179488275464
  46     0.0114518828197750
  47    -0.0083500492230257
  48     0.0065743658048148
 Ene=   -0.588773
 Spin=  Alpha
 Occup=    2.000000
   1     0.0119306013729237
   2    -0.0142655273942079
   3    -0.0773308642823283
   4    -0.4016167532545850
   5    -0.0006399518480783
   6    -0.0005501060463781
   7    -0.1353557851353784
   8    -0.0002507986107820
   9    -0.0002283194083647
  10    -0.0046107354167833
  11     0.0000071112102459
  12    -0.0080963856857621
  13     0.0199565777987490
  14     0.0000102271118896
  15    -0.0324808730157153
  16     0.0833401794585376
  17     0.0064626177557947
  18     0.3983516598254063
  19    -0.0004185272094862
  20     0.0003138024057390
  21     0.1543503999577205
  22    -0.0002213456772542
  23     0.0001054424174768
  24    -0.0030735539603079
  25    -0.0000054155820534
  26     0.0058397593908941
  27     0.0147800452480401
  28    -0.0000147028488399
  29    -0.1899722114587733
  30    -0.0620508880166403
  31    -0.0000681437216102
  32     0.0117691953981575
  33     0.0070112764538934
  34    -0.1890793507748594
  35    -0.0617864257467951
  36    -0.0000978153359543
  37    -0.0117378071934451
  38    -0.0069890151897496
  39    -0.1482172222814817
  40    -0.0472160366633832
  41     0.0004649229047353
  42    -0.0093306605409546
  43     0.0054718704955381
  44    -0.1485503699063580
  45    -0.0473428266463723
  46     0.0004746996237500
  47     0.0093375450232640
  48    -0.0054853363782653
 Ene=   -0.546962
 Spin=  Alpha
 Occup=    2.000000
   1    -0.0000058105181983
   2     0.0000239485326581
   3    -0.0000909951908825
   4    -0.0005597217136982
   5     0.2221363001313082
   6     0.2786447972050762
   7    -0.0002243922838741
   8     0.0926653432516286
   9     0.1521238689669184
  10    -0.0000074089433829
  11    -0.0051848692069106
  12     0.0000061288856301
  13     0.0000146982967420
  14     0.0158260456114696
  15    -0.0000398725345263
  16     0.0000969109986321
  17     0.0000608152686215
  18     0.0001535106181070
  19    -0.1338834528782243
  20     0.2341921797677078
  21     0.0000711449618270
  22    -0.0550525171505305
  23     0.1205057950785123
  24     0.0000027656271558
  25     0.0083328987087386
  26     0.0000280766717351
  27     0.0000170887208463
  28     0.0186873748619909
  29     0.2482995218156077
  30     0.0862943568357157
  31    -0.0111901754130943
  32    -0.0103937834900095
  33    -0.0019328200144832
  34    -0.2485842895724140
  35    -0.0863939567128850
  36     0.0111920178941098
  37    -0.0104092801005941
  38    -0.0019274296518621
  39     0.1693675710880230
  40     0.0599529929984417
  41     0.0079146994026756
  42     0.0069000375424732
  43    -0.0011430537642048
  44    -0.1696791172724577
  45    -0.0600624106034095
  46    -0.0079043797351505
  47     0.0069255005343770
  48    -0.0011707307455391
 Ene=    0.000000
 Spin=  Alpha
 Occup=    1.474037
   1     0.0000341535894118
   2    -0.0000799665834977
   3    -0.0000694190392058
   4    -0.0001123097018924
   5    -0.3129587575796202
   6     0.3598485957138233
   7    -0.0001954038724762
   8    -0.2776260461937773
   9     0.3978056846711316
  10    -0.0000255144339950
  11    -0.0217709900230175
  12    -0.0000099554302198
  13     0.0000157480929298
  14    -0.0085881818517920
  15    -0.0000084172769864
  16     0.0000082327107470
  17     0.0000903208598494
  18    -0.0001657497415798
  19     0.1377921819086191
  20     0.1427398563232765
  21    -0.0001899527941691
  22     0.0816718462502236
  23     0.1347294319886683
  24     0.0000445806998559
  25     0.0346026760908695
  26    -0.0000228283115146
  27    -0.0000376673729217
  28    -0.0285814775336476
  29    -0.1046139452960497
  30    -0.0626047330236211
  31     0.0020135434267891
  32    -0.0053761212549657
  33     0.0160757793196674
  34     0.1046601836712704
  35     0.0626772568889068
  36    -0.0020311486134531
  37    -0.0053728345792669
  38     0.0160738035544905
  39    -0.1596605787403018
  40    -0.1692851389134297
  41    -0.0005142524710855
  42    -0.0002001198043485
  43     0.0061524938195612
  44     0.1597292576353287
  45     0.1692951829336809
  46     0.0004924252428564
  47    -0.0002140864662843
  48     0.0061651664086653
 Ene=    0.000000
 Spin=  Alpha
 Occup=    0.525963
   1    -0.0000181242588139
   2     0.0000418093229416
   3     0.0000709229361279
   4     0.0000898082231482
   5     0.0538891968156282
   6    -0.1960714701794044
   7     0.0001707297041971
   8     0.1543165840298526
   9    -0.3127470948177933
  10    -0.0000299615431718
  11    -0.0247352178692101
  12    -0.0000244507199840
  13     0.0000282873022991
  14    -0.0356427133547840
  15     0.0000094616066335
  16    -0.0000007260098422
  17    -0.0001741482213182
  18    -0.0002839111632812
  19     0.2673208325159406
  20     0.4095424145646683
  21    -0.0002663219256037
  22     0.3814809762655977
  23     0.4563914763419062
  24    -0.0000299074830100
  25    -0.0170692486625615
  26     0.0000207369923357
  27     0.0000173218895450
  28     0.0252737518245409
  29    -0.1541913370892794
  30    -0.1551817751763705
  31    -0.0027279339382493
  32     0.0090004921253332
  33    -0.0075515105890246
  34     0.1541760788902300
  35     0.1551302889445288
  36     0.0027338412366795
  37     0.0090022480557366
  38    -0.0075494231841732
  39     0.0926588951222114
  40     0.1783825302775739
  41    -0.0027214260759243
  42     0.0103098648157301
  43     0.0138792494201765
  44    -0.0926439006373296
  45    -0.1782768349757781
  46     0.0027108873207624
  47     0.0103163646760564
  48     0.0138737517992209
 Ene=    0.203614
 Spin=  Alpha
 Occup=    0.000000
   1     0.0123241055531127
   2    -0.0423294797659402
   3    -0.3510930234157641
   4    -0.0745229593385908
   5    -0.0000505360745705
   6    -0.0000379253786055
   7    -0.2747783118806800
   8    -0.0002616909331446
   9    -0.0002356816173650
  10     0.0019385822200436
  11    -0.0000062829384251
  12    -0.0065017617008375
  13    -0.0047168340658625
  14     0.0000005666967832
  15     0.1138903814706767
  16    -0.1805821767200001
  17    -2.2614310983524653
  18     0.1703572955984453
  19    -0.0000569254652822
  20     0.0001493379010285
  21     0.6989661349381225
  22    -0.0002198235431647
  23     0.0007130447434110
  24     0.0020382475692046
  25    -0.0000007279296533
  26     0.0036023422269299
  27    -0.0007439391763450
  28    -0.0000074645837979
  29    -0.0231766748274857
  30     0.3405399929278613
  31    -0.0030026759099252
  32    -0.0004170674171591
  33    -0.0032651570516954
  34    -0.0231856706183126
  35     0.3401261440942386
  36    -0.0029993228115147
  37     0.0004145940708699
  38     0.0032575518545053
  39     0.0131915936252463
  40     1.5635541460952378
  41     0.0025290999233673
  42     0.0042481413184081
  43    -0.0031141730824404
  44     0.0132381629133162
  45     1.5633321325535110
  46     0.0025165122031568
  47    -0.0042532201474971
  48     0.0031192186849522
 Ene=    0.227430
 Spin=  Alpha
 Occup=    0.000000
   1    -0.1204368356262899
   2     0.1614420112090172
   3     2.6919886049904047
   4     0.1234745218413607
   5     0.0000260542599866
   6     0.0001871821886685
   7     0.4741668739304029
   8    -0.0000101347080675
   9     0.0007976102878237
  10    -0.0026701304749231
  11     0.0000080408489674
  12     0.0034794160549176
  13    -0.0023998732263079
  14    -0.0000128114045458
  15     0.0335273697228674
  16    -0.0053523541857811
  17    -0.9240791620258586
  18    -0.0017785513922255
  19     0.0001728458604986
  20    -0.0001422892300807
  21    -0.1312315389442856
  22     0.0007174509625546
  23    -0.0006877310109260
  24    -0.0019908851395913
  25     0.0000172334941941
  26    -0.0068773057683950
  27     0.0085066071343039
  28     0.0000045234021499
  29    -0.0138521787777967
  30    -1.6189592903363010
  31     0.0043915237233952
  32     0.0044349411160134
  33     0.0017297959694159
  34    -0.0138473903990898
  35    -1.6182693188528166
  36     0.0043947240485525
  37    -0.0044349030728824
  38    -0.0017172884465077
  39     0.0352553785373152
  40     0.3387434546472468
  41    -0.0016397668686758
  42     0.0019560076448080
  43     0.0026594153188653
  44     0.0352442043174130
  45     0.3364018908241893
  46    -0.0016472894300668
  47    -0.0019505492305368
  48    -0.0026755454008291
 Ene=    0.248040
 Spin=  Alpha
 Occup=    0.000000
   1    -0.0000627160384549
   2     0.0000474405978639
   3     0.0028900937588110
   4     0.0002656130445617
   5    -0.1164632915128696
   6    -0.1209201136299099
   7     0.0005790435193356
   8    -0.3728170061831603
   9    -0.6685584625265877
  10    -0.0000116391610203
  11    -0.0082320069320380
  12     0.0000012176712207
  13    -0.0000016852685576
  14     0.0090557293699353
  15    -0.0000023323443892
  16     0.0000955761201604
  17    -0.0010998284071931
  18    -0.0001807892596913
  19    -0.2268004250771004
  20     0.1681432170359056
  21    -0.0014708337667319
  22    -0.8169144608973846
  23     0.7913075322575776
  24    -0.0000050806605397
  25    -0.0091417616287720
  26    -0.0000022033184805
  27     0.0000088368068078
  28    -0.0029790856947182
  29    -0.0015338376730655
  30     0.8989640991960476
  31    -0.0041574607383595
  32    -0.0024851951232364
  33    -0.0043001126481525
  34     0.0014588129688473
  35    -0.9015621806845929
  36     0.0041790295116462
  37    -0.0024912362251335
  38    -0.0042898239211514
  39     0.0066467822373029
  40    -1.4277711641993387
  41    -0.0060411572929742
  42    -0.0038906929772862
  43     0.0047563848853639
  44    -0.0066113699328502
  45     1.4279977406230286
  46     0.0060572123029530
  47    -0.0038889361398984
  48     0.0047528300132713
 Ene=    0.283558
 Spin=  Alpha
 Occup=    0.000000
   1    -0.0000046279913698
   2    -0.0000408231782235
   3     0.0014883707470922
   4    -0.0000525056009060
   5     0.2094308930079056
   6     0.1221877801928078
   7    -0.0008112847629509
   8     1.4111150777732659
   9     0.5537709685241781
  10    -0.0000012052338216
  11    -0.0011073933109751
  12     0.0000057366301281
  13    -0.0000084282197595
  14     0.0125115495817507
  15     0.0000107022379370
  16     0.0000243054805476
  17    -0.0009798373482101
  18    -0.0001018803353208
  19    -0.1262469632531605
  20     0.1126067598791331
  21    -0.0007251798942036
  22    -1.0482384137552725
  23     0.2295765702558028
  24     0.0000057469266055
  25     0.0028166065336525
  26     0.0000132108356702
  27    -0.0000049547557400
  28     0.0163124783608749
  29     0.0242993670182879
  30    -1.6840520509517261
  31     0.0119739133821792
  32     0.0073167447012098
  33     0.0042777970701001
  34    -0.0243451252107544
  35     1.6831607510354363
  36    -0.0119749517927051
  37     0.0073093293737118
  38     0.0042668542556780
  39     0.0194472050974611
  40    -1.0940053884224219
  41    -0.0085675258002769
  42    -0.0033721095736086
  43     0.0033904064367184
  44    -0.0193986323362381
  45     1.0943549689164720
  46     0.0085779034894636
  47    -0.0033645763780866
  48     0.0034013127225914
 Ene=    0.470998
 Spin=  Alpha
 Occup=    0.000000
   1     0.0731621195620550
   2    -0.1516270831351537
   3    -4.7071316846889371
   4     0.1821662075514253
   5     0.0000919114204748
   6     0.0000398951153916
   7     3.3190434394671255
   8     0.0006082078097116
   9     0.0019708641924257
  10    -0.0004539967607878
  11     0.0000059047575822
  12    -0.0163537135385472
  13     0.0146525029206979
  14     0.0000411999171321
  15    -0.0693066065373927
  16     0.1021113992917346
  17     4.7566715064046701
  18     0.1338076845297290
  19    -0.0000145001984426
  20     0.0001552779910168
  21     3.3561897590338567
  22     0.0002666145066416
  23     0.0024665695190645
  24     0.0078091756037572
  25    -0.0000079780152949
  26    -0.0116549769941539
  27    -0.0219208952956462
  28    -0.0000375308861895
  29    -0.1086268920041330
  30    -0.2218096599157961
  31     0.0064760328598238
  32    -0.0038402163973510
  33    -0.0030380410823537
  34    -0.1088157860148294
  35    -0.2216846954361275
  36     0.0064501062395551
  37     0.0038537218799259
  38     0.0030263247137568
  39     0.0777677337843982
  40     0.2497934991958456
  41     0.0140595411929410
  42    -0.0035210749099114
  43     0.0027071584818357
  44     0.0786324456361554
  45     0.2480691642553469
  46     0.0139689894609928
  47     0.0035006908850777
  48    -0.0026660773571969
 Ene=    0.564952
 Spin=  Alpha
 Occup=    0.000000
   1     0.0832357715003787
   2    -0.7345655086622797
   3     0.6147635712832316
   4     0.3679501964465063
   5     0.0001810670837956
   6     0.0000639046498731
   7    -0.6697855949584558
   8    -0.0000814591579097
   9    -0.0008747104898287
  10     0.0303989709607329
  11    -0.0000606205682256
  12    -0.0044595350978355
  13    -0.0432096128350105
  14     0.0000290421096243
  15     0.1098358287190028
  16    -0.9198237309261348
  17     0.9839912867993658
  18    -0.3853539832801747
  19     0.0001911903771788
  20    -0.0003503321929654
  21     0.6795829033470470
  22    -0.0005158231066753
  23     0.0010612097781895
  24     0.0319969583025872
  25    -0.0000463009906762
  26     0.0096376953788593
  27    -0.0427361825240026
  28    -0.0000982356507260
  29     0.0539669806536203
  30    -0.2339221106014127
  31    -0.0343905755203097
  32     0.0019712858288867
  33     0.0024904975347871
  34     0.0535037990996909
  35    -0.2338805646140834
  36    -0.0344411207512607
  37    -0.0019655114349936
  38    -0.0025747714840106
  39    -0.0260922514909872
  40    -0.1894295697275999
  41     0.0348060916861760
  42    -0.0039951514475208
  43     0.0032901660491220
  44    -0.0246689993842997
  45    -0.1909240102905656
  46     0.0347007915477062
  47     0.0039855323183801
  48    -0.0032113510893087
 Ene=    0.662215
 Spin=  Alpha
 Occup=    0.000000
   1    -0.0502675805121882
   2     0.5406684848190575
   3    -2.2313510307109055
   4     0.1193712826850674
   5    -0.0004250664610150
   6     0.0004936514923965
   7    -0.5428306378882977
   8     0.0010861490016963
   9     0.0003215196377407
  10    -0.0328883720813649
  11    -0.0000002145296474
  12     0.0488031520252637
  13    -0.0291777586252381
  14    -0.0001837388782921
  15    -0.0605553304239957
  16     0.5672184181022926
  17    -1.3495740123308020
  18    -0.1223675583919690
  19    -0.0000525180802051
  20    -0.0000542891059539
  21     1.1926072749851870
  22     0.0003141025414245
  23    -0.0000625299802299
  24    -0.0348944181300822
  25     0.0000111827172063
  26    -0.0448421363678982
  27    -0.0276637097421333
  28     0.0001957187396381
  29     0.5287729196992895
  30     0.4203090654664165
  31    -0.0144305085088609
  32     0.0222292042306984
  33     0.0081031366073203
  34     0.5303722805214803
  35     0.4202504873664882
  36    -0.0143191616746024
  37    -0.0222647169112428
  38    -0.0080144033747119
  39     0.5216359851084339
  40     0.4862937158213343
  41     0.0229022029605758
  42    -0.0182749688424831
  43     0.0059353833167914
  44     0.5199798330910151
  45     0.4864398129255281
  46     0.0230308710984827
  47     0.0182473395389600
  48    -0.0059439798958726
 Ene=    0.678011
 Spin=  Alpha
 Occup=    0.000000
   1    -0.0002938919112751
   2     0.0031473428128297
   3    -0.0065534735114515
   4     0.0001609426089393
   5     0.1446566129147845
   6    -0.1242842559901772
   7    -0.0012510090226721
   8    -0.4422550284674134
   9    -0.6338103256837864
  10    -0.0001427601493836
  11     0.0052209819385975
  12     0.0002761058291228
  13    -0.0000248943952528
  14     0.0942133626584038
  15    -0.0001083991162565
  16     0.0005884698391928
  17    -0.0000020327212145
  18     0.0006278869480482
  19     0.0502533334240698
  20     0.0353429481725948
  21    -0.0020755403243599
  22    -0.5277513455239468
  23     0.7330875014028054
  24    -0.0000130304717235
  25     0.0179105726591462
  26    -0.0000708487961030
  27    -0.0000293144633591
  28    -0.1136674761355493
  29     0.4908552266676929
  30    -0.0335181077375264
  31     0.0425857614940790
  32     0.0111712374606393
  33    -0.0268651385819478
  34    -0.4872831122345006
  35     0.0364212664458721
  36    -0.0425739176152676
  37     0.0110403407421906
  38    -0.0269912245395520
  39    -0.6506518806501209
  40     0.1580831074881139
  41     0.0532886411501775
  42     0.0075162606492196
  43     0.0217958828836256
  44     0.6500831726723069
  45    -0.1579576175893185
  46    -0.0535475035889701
  47     0.0074765915249871
  48     0.0217136161370888
 Ene=    0.711819
 Spin=  Alpha
 Occup=    0.000000
   1    -0.0525709645614947
   2     0.8039742428251156
   3    -4.0510778593387933
   4     0.1817402722692053
   5     0.0002919708516170
   6    -0.0002976166820277
   7     0.7590196670756074
   8     0.0000733120735229
   9     0.0023822187746098
  10    -0.0300227671865654
  11     0.0000530596200820
  12     0.0658783408049748
  13     0.0050726323387170
  14    -0.0002183356513361
  15     0.0380825511182041
  16    -0.6832249880718045
  17     4.1266838936175265
  18     0.2610304792833723
  19    -0.0009466409566478
  20    -0.0004788397279351
  21     0.4651001005674069
  22     0.0029907782411401
  23    -0.0010687624038650
  24     0.0274661495039668
  25    -0.0001015629347835
  26     0.0706108232815033
  27     0.0012780827436046
  28     0.0001625775661325
  29     0.4876673615326806
  30     0.3031020248336334
  31    -0.0168243635549915
  32     0.0074898229173027
  33     0.0090029818174274
  34     0.4896692361102523
  35     0.3030493182976944
  36    -0.0165251254186843
  37    -0.0074964750093794
  38    -0.0089724799696248
  39    -0.5117553042509948
  40    -0.3727381811647963
  41    -0.0286581846552939
  42     0.0050180103970438
  43    -0.0074980267492436
  44    -0.5146615270118485
  45    -0.3726311611207553
  46    -0.0286262014324014
  47    -0.0050198497831634
  48     0.0072922016338808
 Ene=    0.722738
 Spin=  Alpha
 Occup=    0.000000
   1    -0.0000375355852074
   2     0.0007643878088542
   3    -0.0037242582864199
   4    -0.0000230324926101
   5    -0.2467058852465726
   6     0.3983913725737520
   7     0.0008743662272585
   8     0.3140401682407541
   9    -0.3179793198734406
  10    -0.0000969378327286
  11    -0.0563653256287960
  12     0.0000564260311590
  13     0.0000590715222354
  14    -0.0137461401506505
  15     0.0000460905384403
  16    -0.0008999488118103
  17     0.0048739390883390
  18    -0.0002208925347300
  19     0.4605891784552106
  20     0.7722958608949608
  21     0.0004294738659183
  22    -0.6260874007922465
  23    -0.7583801561509701
  24     0.0001033005282852
  25     0.0452773328182512
  26     0.0001039328806819
  27    -0.0000240742159250
  28    -0.0129223510651159
  29    -0.0174940558777934
  30     0.1992467712579132
  31     0.0228222666342484
  32    -0.0119654225920621
  33     0.0023623255969366
  34     0.0184768679046174
  35    -0.1987239280836746
  36    -0.0228498864056867
  37    -0.0119765385595489
  38     0.0023080506262706
  39    -0.0734978423925647
  40     0.0833883503730148
  41    -0.0083260520519545
  42     0.0132402769176121
  43     0.0169276713473672
  44     0.0719198852084414
  45    -0.0847306193870808
  46     0.0082206455405738
  47     0.0132037451295681
  48     0.0169772045211530
 Ene=    0.781384
 Spin=  Alpha
 Occup=    0.000000
   1    -0.0000379448781511
   2     0.0001679281352759
   3    -0.0003951373380828
   4     0.0003905951553173
   5     0.4630989183234410
   6    -0.7776397840611369
   7    -0.0005690593921157
   8    -0.4413445450686128
   9     1.0429583417589205
  10    -0.0000010942516944