[Molden Format]
[Atoms] Angs
 c       1                    6  7.295000000000e-01  0.000000000000e+00 -1.000000000000e-03
 c       2                    6 -6.315000000000e-01 -2.000000000000e-04 -1.900000000000e-03
 h       3                    1  1.287700000000e+00  8.172000000000e-01  4.719000000000e-01
 h       4                    1  1.288600000000e+00 -8.171000000000e-01 -4.731000000000e-01
 h       5                    1 -1.270400000000e+00 -7.987000000000e-01  4.554000000000e-01
 h       6                    1 -1.268900000000e+00  7.988000000000e-01 -4.605000000000e-01
[GTO]
1
 s           5
      1.238401693800e+03      5.517365048110e-03
      1.862900499200e+02      4.108882855595e-02
      4.225117634600e+01      1.822538212649e-01
      1.167655793200e+01      4.682845943743e-01
      3.593050648200e+00      4.457581733600e-01
 s           1
      4.024514736300e-01      1.000000000000e+00
 s           1
      1.309018266800e-01      1.000000000000e+00
 p           3
      9.468097062100e+00      5.688833201104e-02
      2.010354514200e+00      3.129405933647e-01
      5.477100470700e-01      7.606501650914e-01
 p           1
      1.526861379500e-01      1.000000000000e+00
 d           1
      8.000000000000e-01      1.000000000000e+00

2
 s           5
      1.238401693800e+03      5.517365048110e-03
      1.862900499200e+02      4.108882855595e-02
      4.225117634600e+01      1.822538212649e-01
      1.167655793200e+01      4.682845943743e-01
      3.593050648200e+00      4.457581733600e-01
 s           1
      4.024514736300e-01      1.000000000000e+00
 s           1
      1.309018266800e-01      1.000000000000e+00
 p           3
      9.468097062100e+00      5.688833201104e-02
      2.010354514200e+00      3.129405933647e-01
      5.477100470700e-01      7.606501650914e-01
 p           1
      1.526861379500e-01      1.000000000000e+00
 d           1
      8.000000000000e-01      1.000000000000e+00

3
 s           3
      1.301070100000e+01      3.348548481299e-02
      1.962257200000e+00      2.347218708812e-01
      4.445379600000e-01      8.137702852596e-01
 s           1
      1.219496200000e-01      1.000000000000e+00
 p           1
      8.000000000000e-01      1.000000000000e+00

4
 s           3
      1.301070100000e+01      3.348548481299e-02
      1.962257200000e+00      2.347218708812e-01
      4.445379600000e-01      8.137702852596e-01
 s           1
      1.219496200000e-01      1.000000000000e+00
 p           1
      8.000000000000e-01      1.000000000000e+00

5
 s           3
      1.301070100000e+01      3.348548481299e-02
      1.962257200000e+00      2.347218708812e-01
      4.445379600000e-01      8.137702852596e-01
 s           1
      1.219496200000e-01      1.000000000000e+00
 p           1
      8.000000000000e-01      1.000000000000e+00

6
 s           3
      1.301070100000e+01      3.348548481299e-02
      1.962257200000e+00      2.347218708812e-01
      4.445379600000e-01      8.137702852596e-01
 s           1
      1.219496200000e-01      1.000000000000e+00
 p           1
      8.000000000000e-01      1.000000000000e+00


[5D]
[7F]
[9G]
[MO]
 Ene=  -11.251331
 Spin=  Alpha
 Occup=    2.000000
   1     0.1118268500764898
   2     0.0015049673858781
   3     0.0033977788303541
   4     0.0014928299956187
   5     0.0000001503402803
   6     0.0000010381041669
   7    -0.0020118757335931
   8    -0.0000005929898405
   9    -0.0000012457990229
  10     0.0003860276206792
  11    -0.0000007608336434
  12    -0.0000635810422673
  13    -0.0002365878699400
  14     0.0000003861938902
  15     0.9846206566460621
  16     0.0345103807076058
  17    -0.0219006261101325
  18    -0.0006191477956562
  19     0.0000003365895500
  20    -0.0000009297775247
  21    -0.0005555343149891
  22    -0.0000016713074625
  23     0.0000007937456646
  24    -0.0010877143801320
  25     0.0000010637970095
  26    -0.0010312687186361
  27     0.0006395021351781
  28     0.0000022371045628
  29    -0.0000166164021566
  30     0.0008988313465703
  31    -0.0004006866326184
  32    -0.0000639795853261
  33    -0.0000452151822175
  34    -0.0000167191224458
  35     0.0008989687820964
  36    -0.0004007382214507
  37     0.0000639919299642
  38     0.0000447482665859
  39    -0.0021522501047712
  40     0.0047336973598369
  41    -0.0006278479557867
  42    -0.0011567810545878
  43     0.0006292463740306
  44    -0.0021500727618117
  45     0.0047342942120534
  46    -0.0006255214830072
  47     0.0011563429752495
  48    -0.0006300412045116
 Ene=  -11.245295
 Spin=  Alpha
 Occup=    2.000000
   1    -0.9845535041378409
   2    -0.0354105271073235
   3     0.0241499484239897
   4    -0.0001292437897155
   5    -0.0000001227769650
   6    -0.0000002132101918
   7    -0.0011697092877411
   8    -0.0000016559076821
   9    -0.0000002988387629
  10     0.0011211255635831
  11    -0.0000015968335721
  12    -0.0012258672163566
  13    -0.0003897388917933
  14     0.0000009601680368
  15     0.1116326720911246
  16     0.0062693584591740
  17    -0.0091831886034514
  18     0.0013647329240808
  19     0.0000004310148933
  20     0.0000007495703683
  21    -0.0020593084482980
  22     0.0000033350643575
  23    -0.0000032698235153
  24    -0.0006084567775322
  25     0.0000010146930993
  26    -0.0002029885789293
  27     0.0003962833451861
  28     0.0000003083250531
  29     0.0023264287062285
  30    -0.0050458025672256
  31    -0.0007013951224520
  32    -0.0011195481365298
  33    -0.0006154168283765
  34     0.0023258758563193
  35    -0.0050461701240024
  36    -0.0007026363471134
  37     0.0011196012893292
  38     0.0006143013927532
  39    -0.0003607161448209
  40     0.0004671790846526
  41    -0.0004896368566704
  42    -0.0002441574400667
  43     0.0001394359227379
  44    -0.0003623290943449
  45     0.0004615485608688
  46    -0.0004904942356251
  47     0.0002445921527946
  48    -0.0001403887595011
 Ene=   -1.010612
 Spin=  Alpha
 Occup=    2.000000
   1    -0.2010111301994838
   2     0.3876701961505760
   3     0.1186406105910811
   4    -0.1161502435943930
   5    -0.0000057395186447
   6    -0.0000747600128546
   7    -0.0191768739221719
   8    -0.0000025072980978
   9    -0.0000169726192774
  10    -0.0086032224190631
  11     0.0000199957640630
  12     0.0025133828427946
  13     0.0144754014082684
  14     0.0000028647676867
  15    -0.1972380161089696
  16     0.3843351090849927
  17     0.1244878917119921
  18     0.1188081991152312
  19     0.0000357432405604
  20     0.0000638684827412
  21     0.0248594242871007
  22     0.0000051690775508
  23     0.0000161430746317
  24    -0.0089200206485359
  25     0.0000192903561872
  26    -0.0021726809459287
  27     0.0153547170203074
  28     0.0000069056466292
  29     0.1086721702169440
  30     0.0101609691385361
  31    -0.0090440620217931
  32    -0.0113100782674188
  33    -0.0069627781259801
  34     0.1086507655806874
  35     0.0101546313180335
  36    -0.0090546377455077
  37     0.0113064563851554
  38     0.0069489015893219
  39     0.0992073963758091
  40     0.0105154214488750
  41     0.0086942929515302
  42     0.0096574830546266
  43    -0.0059948713528308
  44     0.0992532287771931
  45     0.0105163434773309
  46     0.0086807301385583
  47    -0.0096692822767552
  48     0.0060145121327958
 Ene=   -0.780512
 Spin=  Alpha
 Occup=    2.000000
   1    -0.1499561799372070
   2     0.3012194014854401
   3     0.1276645387127003
   4     0.1511145352715842
   5     0.0000244163611335
   6     0.0001174609853524
   7     0.0589208267469283
   8     0.0000042824783987
   9     0.0000422117462349
  10    -0.0019633975890265
  11    -0.0000056157102653
  12     0.0076407497120058
  13    -0.0089829683175275
  14    -0.0000057948989228
  15     0.1545554450765419
  16    -0.3128980304439080
  17    -0.1350877897659511
  18     0.1643574388328285
  19     0.0000046088320231
  20     0.0001255741823798
  21     0.0617042831211886
  22     0.0000124790135259
  23     0.0000417352390603
  24     0.0025845804847401
  25     0.0000046663838202
  26     0.0072956631024671
  27     0.0078084401205977
  28    -0.0000098006353645
  29     0.1865600614682306
  30     0.0364347003319214
  31    -0.0067967811002538
  32    -0.0140354214507207
  33    -0.0092760149490002
  34     0.1865382969495407
  35     0.0364308124062095
  36    -0.0068125323710516
  37     0.0140331197304517
  38     0.0092651362104398
  39    -0.1945660322049201
  40    -0.0391812115051975
  41    -0.0082078136601655
  42    -0.0141794956469685
  43     0.0093481394263430
  44    -0.1944742146020143
  45    -0.0391764872805544
  46    -0.0081714088492068
  47     0.0141798918620359
  48    -0.0093619333992957
 Ene=   -0.610699
 Spin=  Alpha
 Occup=    2.000000
   1     0.0000188457082421
   2    -0.0000380516972832
   3    -0.0000245540048796
   4    -0.0004114565882845
   5     0.3308082762489393
   6     0.1230116750805622
   7    -0.0001696801307262
   8     0.1328742723869322
   9     0.0411748459388914
  10     0.0000074202405922
  11     0.0078000591506427
  12    -0.0000005051049687
  13     0.0000054108246999
  14     0.0054116504418990
  15     0.0000071890813551
  16    -0.0000085517481597
  17    -0.0000764980400417
  18     0.0003220486349665
  19     0.2632197606242705
  20    -0.0565320714114471
  21     0.0000847820181556
  22     0.1113780590730453
  23    -0.0150869278791926
  24     0.0000126132270232
  25     0.0095325829681121
  26    -0.0000039168404238
  27    -0.0000115229714744
  28     0.0001943022757517
  29     0.2448318155272968
  30     0.0770199596085060
  31    -0.0103946574875907
  32    -0.0088585395867179
  33    -0.0067610070064198
  34    -0.2451063648605430
  35    -0.0771075304447686
  36     0.0104078709875487
  37    -0.0088738816453014
  38    -0.0067564277230985
  39    -0.1730040613052224
  40    -0.0561214500505091
  41    -0.0082953781307542
  42    -0.0055167225648616
  43     0.0050369990223596
  44     0.1728261167783505
  45     0.0560673284820303
  46     0.0082787236492468
  47    -0.0055110774827567
  48     0.0050451008499091
 Ene=   -0.587519
 Spin=  Alpha
 Occup=    2.000000
   1     0.0058113805278970
   2    -0.0228338963171681
   3     0.0381985695901974
   4     0.4053557367949315
   5     0.0004834573486923
   6     0.0005331642586361
   7     0.1483481652113493
   8     0.0002112238867151
   9     0.0002108187722374
  10     0.0025296396786242
  11    -0.0000134823196676
  12     0.0072101579488912
  13    -0.0191049075564538
  14     0.0000069990049721
  15     0.0178926823274067
  16    -0.0479534083402920
  17     0.0241521860984190
  18    -0.4006577554123654
  19    -0.0000496014001670
  20    -0.0001208550059004
  21    -0.1456401842586360
  22    -0.0000238235064258
  23    -0.0000261675576373
  24     0.0017094666616379
  25    -0.0000049991110442
  26    -0.0059936907023733
  27    -0.0166101733556320
  28     0.0000294099838413
  29     0.1723160248516331
  30     0.0566371996658595
  31     0.0011002541551371
  32    -0.0105230297497899
  33    -0.0065692301851492
  34     0.1715987258586300
  35     0.0564140610501591
  36     0.0011181148029343
  37     0.0104972390505316
  38     0.0065540968495448
  39     0.1665109153454207
  40     0.0548989343857552
  41     0.0003216219659608
  42     0.0102960329449081
  43    -0.0063366703574656
  44     0.1661395374989397
  45     0.0547982403664509
  46     0.0002781113669079
  47    -0.0102803768487418
  48     0.0063344246762775
 Ene=   -0.542806
 Spin=  Alpha
 Occup=    2.000000
   1    -0.0000291195586705
   2     0.0000817720165076
   3    -0.0000488048382200
   4    -0.0005880364348660
   5     0.1571835390264809
   6     0.2185102081753103
   7    -0.0002329391679325
   8     0.0816960902960423
   9     0.1098065279983405
  10    -0.0000087625124880
  11    -0.0074595913213861
  12     0.0000081362527053
  13     0.0000172893102124
  14     0.0190782964781421
  15    -0.0000399341266344
  16     0.0000954609975837
  17     0.0000456615225951
  18     0.0002075637687404
  19    -0.2489504517435374
  20     0.2419677189445193
  21     0.0000860743647917
  22    -0.1273027978716194
  23     0.1198508318588200
  24    -0.0000019062967547
  25     0.0047271145549802
  26     0.0000337985750908
  27     0.0000307206372455
  28     0.0208717479317207
  29     0.1877562521271077
  30     0.0655534359308948
  31    -0.0076055364040582
  32    -0.0077329426054310
  33    -0.0018389543927575
  34    -0.1880621454015683
  35    -0.0656691909944056
  36     0.0076031409688986
  37    -0.0077506392487305
  38    -0.0018400456100156
  39     0.2494055230906499
  40     0.0928115595989542
  41     0.0113676349629416
  42     0.0086994921473781
  43    -0.0034376198565289
  44    -0.2498199497036423
  45    -0.0929734855143997
  46    -0.0113525628664403
  47     0.0087335740362068
  48    -0.0034744314800203
 Ene=   -0.309435
 Spin=  Alpha
 Occup=    2.000000
   1    -0.0000226160425111
   2     0.0000540987059258
   3     0.0000310510836575
   4     0.0001067972013320
   5     0.2319179693918944
   6    -0.2943988175230744
   7     0.0001501288678659
   8     0.1960408999109012
   9    -0.2884900152351454
  10     0.0000336231749806
  11     0.0285972183481411
  12     0.0000156733611023
  13    -0.0000235063346602
  14     0.0168665538602145
  15     0.0000078865074274
  16    -0.0000127038660615
  17    -0.0000326557743319
  18     0.0002595580892857
  19    -0.2277885958272778
  20    -0.2930001502709374
  21     0.0002838587280042
  22    -0.1928205659764884
  23    -0.2891751952502153
  24    -0.0000345513125349
  25    -0.0286836282110108
  26     0.0000150157871693
  27     0.0000304335883531
  28     0.0186632357216562
  29     0.1141664619514973
  30     0.0988677118019387
  31     0.0002914951363112
  32     0.0032981141423682
  33    -0.0113009418006575
  34    -0.1142013130838580
  35    -0.0989171261071895
  36    -0.0002785905384635
  37     0.0032940784488388
  38    -0.0113013260232013
  39     0.1229659075947683
  40     0.1113694213759163
  41     0.0009749220673204
  42    -0.0030360029444975
  43    -0.0105386991130266
  44    -0.1230229115601307
  45    -0.1113986994134396
  46    -0.0009498416481870
  47    -0.0030243763673312
  48    -0.0105472322574384
 Ene=    0.097645
 Spin=  Alpha
 Occup=    0.000000
   1    -0.0000266667475523
   2     0.0000526881134803
   3     0.0001937353439689
   4     0.0001301524193259
   5     0.1600141871372436
   6    -0.2895499108800537
   7     0.0002589954373614
   8     0.2704887540607804
   9    -0.4845327916972039
  10    -0.0000233686506481
  11    -0.0201331855232644
  12    -0.0000131058458983
  13     0.0000173317970478
  14    -0.0147581957659352
  15     0.0000042617654219
  16     0.0000065916954380
  17    -0.0001266069363915
  18    -0.0002017303221005
  19     0.1696406525626442
  20     0.2932387546844354
  21    -0.0003091501526668
  22     0.2990107476358835
  23     0.4889999049015977
  24    -0.0000287948011097
  25    -0.0202029602714709
  26     0.0000116486190458
  27     0.0000209963803078
  28     0.0141445109092655
  29    -0.0948196253976236
  30    -0.1848780238539958
  31    -0.0032990032504955
  32     0.0088847695784055
  33    -0.0121785567663822
  34     0.0947920315545333
  35     0.1847158143395024
  36     0.0033105386814982
  37     0.0088843863217300
  38    -0.0121742530422209
  39     0.0970765077169155
  40     0.2051219325660583
  41    -0.0021757986087192
  42     0.0087620733126113
  43     0.0125380562336632
  44    -0.0971042442660360
  45    -0.2051331214897843
  46     0.0021625759568122
  47     0.0087637046637436
  48     0.0125288033592429
 Ene=    0.211796
 Spin=  Alpha
 Occup=    0.000000
   1     0.0584000219898578
   2    -0.1079813395433461
   3    -1.3230779531089465
   4    -0.1243287948865861
   5    -0.0000502994404469
   6    -0.0001126004102498
   7    -0.4634762341084160
   8    -0.0002362719868709
   9    -0.0005126628804371
  10     0.0025711717678172
  11    -0.0000098765567925
  12    -0.0070231464985119
  13    -0.0048373778060332
  14     0.0000022551637801
  15     0.0912162703323532
  16    -0.1520408943262095
  17    -1.7910240000199014
  18     0.1498923703483853
  19    -0.0000782285222589
  20     0.0001767758411756
  21     0.6745241366422444
  22    -0.0003543435047224
  23     0.0008400165707550
  24     0.0026500807659768
  25    -0.0000064767474897
  26     0.0070025093913589
  27    -0.0032701330264305
  28    -0.0000090976597592
  29    -0.0127253974371068
  30     0.9493481541286211
  31    -0.0044126833030642
  32    -0.0018610498952938
  33    -0.0035846061389182
  34    -0.0127237821679222
  35     0.9487818319957262
  36    -0.0044105564425266
  37     0.0018594975105320
  38     0.0035729902741450
  39    -0.0063197402888595
  40     1.3124908421508013
  41     0.0032070558403250
  42     0.0038742409115092
  43    -0.0039597891375512
  44    -0.0062838533649084
  45     1.3127977401771269
  46     0.0031973713765565
  47    -0.0038796530868434
  48     0.0039701304839784
 Ene=    0.222290
 Spin=  Alpha
 Occup=    0.000000
   1     0.1051440573206207
   2    -0.1336062852524694
   3    -2.2886421530531051
   4    -0.0935128969482415
   5     0.0000104712562697
   6    -0.0001319893011059
   7    -0.3254255026510037
   8     0.0001181198487522
   9    -0.0004779822438806
  10     0.0012022009800589
  11    -0.0000017091456922
  12     0.0004458732119521
  13     0.0037577305459718
  14     0.0000085297898070
  15    -0.0761292183654204
  16     0.0783836766349557
  17     1.7311321347321038
  18    -0.0606750807148891
  19    -0.0000607662470652
  20     0.0000095775290979
  21    -0.1828103648619607
  22    -0.0002658913903244
  23     0.0000731342804313
  24     0.0002246352916114
  25    -0.0000117575390701
  26     0.0031666426295929
  27    -0.0065629228381155
  28     0.0000000256700198
  29     0.0251167307797037
  30     1.3422560466876385
  31    -0.0023555810985612
  32    -0.0037578022830975
  33     0.0003755723162540
  34     0.0251097086155036
  35     1.3420775417988038
  36    -0.0023608299603326
  37     0.0037592722610289
  38    -0.0003807717893552
  39    -0.0320332907685031
  40    -0.9391177592596165
  41     0.0000628171618066
  42    -0.0040407230007134
  43    -0.0010735686780149
  44    -0.0320397145548243
  45    -0.9378657549682003
  46     0.0000719680366686
  47     0.0040404481643443
  48     0.0010825886161093
 Ene=    0.251077
 Spin=  Alpha
 Occup=    0.000000
   1    -0.0000232668139428
   2    -0.0000015259304321
   3     0.0016701249607293
   4     0.0002456497712224
   5    -0.1756117416485339
   6    -0.1497566181034053
   7     0.0006201910110545
   8    -0.7015125307820188
   9    -0.7931422363033067
  10    -0.0000116823514815
  11    -0.0093017122835968
  12    -0.0000017757964978
  13     0.0000030408626202
  14     0.0061926262119094
  15    -0.0000164777248849
  16     0.0000862836610039
  17    -0.0005185945807889
  18    -0.0001520298482617
  19    -0.1765238191077171
  20     0.1367971455396330
  21    -0.0012163854266315
  22    -0.5473787954752917
  23     0.7114731922904897
  24    -0.0000052591683436
  25    -0.0089684768529678
  26    -0.0000017100858221
  27     0.0000069022049801
  28    -0.0062693540470527
  29    -0.0049929658707128
  30     1.2955384362952536
  31    -0.0059058597262795
  32    -0.0044096158728319
  33    -0.0052330453317675
  34     0.0049287269414103
  35    -1.2968978378335003
  36     0.0059252638992442
  37    -0.0044115248234981
  38    -0.0052198273688032
  39     0.0049635609738096
  40    -1.1057497649292234
  41    -0.0045043023044637
  42    -0.0031429796798832
  43     0.0040996996657898
  44    -0.0049633604044569
  45     1.1056297441893528
  46     0.0045179744292865
  47    -0.0031426620629527
  48     0.0040966795590781
 Ene=    0.284031
 Spin=  Alpha
 Occup=    0.000000
   1    -0.0000009565314980
   2     0.0000676749277314
   3    -0.0018272754814389
   4     0.0000074657836713
   5    -0.1668965914172250
   6    -0.1007312495362818
   7     0.0007543882829380
   8    -1.2489654830615313
   9    -0.3576533124496587
  10     0.0000020813973912
  11     0.0015944422829686
  12    -0.0000065685780543
  13     0.0000098916078332
  14    -0.0169199348562129
  15    -0.0000052971448441
  16    -0.0000439217837859
  17     0.0011485248829201
  18     0.0001294495218059
  19     0.1853290514829478
  20    -0.1323068567708049
  21     0.0011042617855037
  22     1.2425013303904233
  23    -0.4274334047669749
  24    -0.0000038481340657
  25     0.0004600284377344
  26    -0.0000135978939629
  27     0.0000025527574317
  28    -0.0134952846858332
  29    -0.0267874130805512
  30     1.3823442089414955
  31    -0.0107325208010887
  32    -0.0058472701701178
  33    -0.0037586525308553
  34     0.0268520846127090
  35    -1.3813437245654434
  36     0.0107301334422755
  37    -0.0058399880738486
  38    -0.0037520554285879
  39    -0.0227518629673052
  40     1.4428229676837176
  41     0.0106680362168442
  42     0.0048095300664851
  43    -0.0042868381171508
  44     0.0227148585734525
  45    -1.4431146422708070
  46    -0.0106835321396115
  47     0.0048029351816857
  48    -0.0042981951355239
 Ene=    0.471189
 Spin=  Alpha
 Occup=    0.000000
   1    -0.0710442883483802
   2     0.1420942625998959
   3     4.6497235394900249
   4    -0.1521101964407736
   5    -0.0000792108951835
   6    -0.0000364943590657
   7    -3.3571561286423495
   8    -0.0005896610853809
   9    -0.0020508676198543
  10     0.0009870185683352
  11    -0.0000115147008043
  12     0.0178810711938503
  13    -0.0205349500088619
  14    -0.0000456200525475
  15     0.0720263153661937
  16    -0.1226759075183973
  17    -4.7346045663244425
  18    -0.1562984381729835
  19     0.0000224746776403
  20    -0.0001606082765261
  21    -3.2886219560037642
  22    -0.0002670572282040
  23    -0.0023610678728701
  24    -0.0051638547571758
  25     0.0000033889958916
  26     0.0109520050403110
  27     0.0164886264137112
  28     0.0000334988477431
  29     0.1386618917933971
  30     0.2144601295888065
  31    -0.0088544142340178
  32     0.0050828789701430
  33     0.0030548310528544
  34     0.1388606943780916
  35     0.2143166709509941
  36    -0.0088270526944492
  37    -0.0050945218573069
  38    -0.0030481247336838
  39    -0.0616171125947697
  40    -0.2483872334032249
  41    -0.0107258637396119
  42     0.0025654916687360
  43    -0.0014896480403666
  44    -0.0624009443687581
  45    -0.2468059934536235
  46    -0.0106446101058796
  47    -0.0025470859139730
  48     0.0014580608388721
 Ene=    0.567969
 Spin=  Alpha
 Occup=    0.000000
   1    -0.0923171604470522
   2     0.7710932488307876
   3    -0.5035753801247430
   4    -0.3953706269565126
   5    -0.0001803813407614
   6    -0.0000847534114186
   7     0.5829725475128471
   8     0.0001227460535113
   9     0.0007785842993935
  10    -0.0312005949943378
  11     0.0000587278242229
  12     0.0047288486832983
  13     0.0415126199403592
  14    -0.0000359816889430
  15    -0.1009701361619821
  16     0.8791396629289737
  17    -1.0606903001261758
  18     0.3648402664179286
  19    -0.0001971877117235
  20     0.0003292992925010
  21    -0.7833358253009620
  22     0.0005269992725671
  23    -0.0010506149700589
  24    -0.0342262851114697
  25     0.0000488550257716
  26    -0.0089955462652439
  27     0.0429924547232674
  28     0.0000999243796463
  29    -0.0526727626684857
  30     0.2355980642753898
  31     0.0330328131339855
  32    -0.0016426986873702
  33    -0.0024533388756547
  34    -0.0521467289136955
  35     0.2355779578499225
  36     0.0330917962034306
  37     0.0016383637827848
  38     0.0025359522398952
  39     0.0217710847680861
  40     0.1699024717562128
  41    -0.0364609463171058
  42     0.0038252259925552
  43    -0.0035964691350810
  44     0.0202904260526758
  45     0.1714981405494626
  46    -0.0363515560845294
  47    -0.0038144421622998
  48     0.0035158017852383
 Ene=    0.658973
 Spin=  Alpha
 Occup=    0.000000
   1    -0.0614739831541070
   2     0.7290209453815703
   3    -3.3706127139157847
   4     0.1648325734897098
   5    -0.0001842018913697
   6     0.0003315813206783
   7    -0.2120819100541703
   8     0.0004921552379201
   9    -0.0002596368934999
  10    -0.0404756731904253
  11     0.0000095860729651
  12     0.0607538721640881
  13    -0.0275362701518788
  14    -0.0000701820140424
  15    -0.0530712497326693
  16     0.3948056413416794
  17    -0.1278415795276066
  18    -0.0533213405101538
  19    -0.0000682838946903
  20     0.0000471133019688
  21     1.4118498432272883
  22    -0.0000951577388327
  23     0.0009541597390207
  24    -0.0296174811127287
  25     0.0000330369348929
  26    -0.0274175911040961
  27    -0.0263531252042516
  28     0.0000299458817869
  29     0.6180579144202578
  30     0.4899630106283816
  31    -0.0174507521012400
  32     0.0213033281621019
  33     0.0089406580797279
  34     0.6184135546271550
  35     0.4899848431072417
  36    -0.0174322474406840
  37    -0.0213043183566845
  38    -0.0089343208037915
  39     0.3878929779899360
  40     0.3952910253009793
  41     0.0155914031258343
  42    -0.0164686917621941
  43     0.0037055383467981
  44     0.3878877225622768
  45     0.3949198510340362
  46     0.0155515146779394
  47     0.0164677133157345
  48    -0.0036796533056477
 Ene=    0.680104
 Spin=  Alpha
 Occup=    0.000000
   1    -0.0002122770443511
   2     0.0021791725162598
   3    -0.0025767054099421
   4    -0.0000674265763995
   5     0.1430637767617155
   6    -0.1377942412245769
   7    -0.0003199940710201
   8    -0.5146907089329992
   9    -0.5821030297757691
  10    -0.0000768214153458
  11     0.0077672221508730
  12     0.0001826307756029
  13     0.0000219065238567
  14     0.0989325956094451
  15    -0.0000058050367518
  16    -0.0003105845198886
  17     0.0019506030900989
  18     0.0007520861424828
  19     0.0752122162085414
  20     0.0524538439071421
  21    -0.0039051792056278
  22    -0.5430715579811577
  23     0.6478205231958878
  24     0.0000329848755301
  25     0.0140543793139625
  26    -0.0000014737933780
  27     0.0000229175926995
  28    -0.1084581673824244
  29     0.5161834660331238
  30    -0.0152396519464439
  31     0.0480581846019146
  32     0.0095558268339806
  33    -0.0267586327172551
  34    -0.5146343859622575
  35     0.0167506768211369
  36    -0.0479933047261837
  37     0.0095155991576136
  38    -0.0268571779400694
  39    -0.6312583163077132
  40     0.1330265940592091
  41     0.0504622401803238
  42     0.0074058273663017
  43     0.0225560357713110
  44     0.6290730199243383
  45    -0.1343791721884148
  46    -0.0507933348396350
  47     0.0073030093354909
  48     0.0225041007102330
 Ene=    0.719379
 Spin=  Alpha
 Occup=    0.000000
   1     0.0439975243548584
   2    -0.6813698993402033
   3     3.4925098959964185
   4    -0.1599448351203346
   5    -0.0013064507658942
   6     0.0018619061782593
   7    -0.8328916113567847
   8     0.0012149704456634
   9    -0.0038220061993510
  10     0.0197016776824211
  11    -0.0001725924730562
  12    -0.0512039181783567
  13    -0.0144903058760211
  14     0.0001983596748155
  15    -0.0489419601934944
  16     0.7851340182497668
  17    -4.2827156169587468
  18    -0.2694457829029436
  19     0.0016718630963121
  20     0.0017483296351236
  21    -0.1967883020847303
  22    -0.0040244373404208
  23     0.0000566325799530
  24    -0.0347357451642543
  25     0.0002425992734267
  26    -0.0786076339448543
  27    -0.0089155252293714
  28    -0.0001907892142755
  29    -0.3353638512313721
  30    -0.2392352379151906
  31     0.0131586577963063
  32     0.0023722479405453
  33    -0.0059747092966239
  34    -0.3372312225886492
  35    -0.2396254339906228
  36     0.0127624413256489
  37    -0.0024249092904767
  38     0.0060132334842902
  39     0.6299993663441658
  40     0.4497185910343656
  41     0.0329694485416808
  42    -0.0114265592911930
  43     0.0114969232128799
  44     0.6331199839925128
  45     0.4487779597725868
  46     0.0330160419788608
  47     0.0114810248662905
  48    -0.0112559671844571
 Ene=    0.726011
 Spin=  Alpha
 Occup=    0.000000
   1     0.0001228175219294
   2    -0.0021283953474432
   3     0.0107938319487397
   4    -0.0001930732020133
   5     0.3645224990020648
   6    -0.5933517459240010
   7    -0.0029448818984753
   8    -0.4723121190310646
   9     0.5816070580288781
  10     0.0001297154527853
  11     0.0570487788614786
  12    -0.0001627653257877
  13    -0.0001037093173709
  14     0.0052975982021061
  15    -0.0001714040477640
  16     0.0028159714221948
  17    -0.0147479489422066
  18    -0.0005204928537822
  19    -0.3707372354998256
  20    -0.6291501491322756
  21    -0.0002955577319031
  22     0.5289917909038979
  23     0.5375519102514004
  24    -0.0002079168693336
  25    -0.0579463608025564
  26    -0.0002879687541808
  27     0.0000018974360411
  28     0.0224249495397695
  29     0.0113878386822069
  30    -0.1364335493000034
  31    -0.0206782143293095
  32     0.0123256114442401
  33    -0.0094708580763422
  34    -0.0135355042796181
  35     0.1350075636620825
  36     0.0207636387698267
  37     0.0123002433395677
  38    -0.0093948217123690
  39     0.0880203828507008
  40    -0.1464585836482651
  41     0.0121291560582762
  42    -0.0128480730456955
  43    -0.0106998962340649
  44    -0.0832888623133282
  45     0.1501477084643874
  46    -0.0118752931530108
  47    -0.0127384401833783
  48    -0.0108127371091010
 Ene=    0.786491
 Spin=  Alpha
 Occup=    0.000000
   1     0.0000331265867343
   2    -0.0001383132753906
   3     0.0005009242882352
   4    -0.0003387195012171
   5    -0.3901073401465264
   6     0.6486537446511388
   7     0.0004680883187661
   8     0.3105738911503985
   9    -0.9228018369911217
  10     0.0000253913397640