[Molden Format]
[Atoms] Angs
 c       1                    6  7.395000000000e-01  0.000000000000e+00 -1.000000000000e-03
 c       2                    6 -6.252000000000e-01 -2.000000000000e-04 -1.900000000000e-03
 h       3                    1  1.297100000000e+00  7.749000000000e-01  5.397000000000e-01
 h       4                    1  1.298100000000e+00 -7.748000000000e-01 -5.410000000000e-01
 h       5                    1 -1.276900000000e+00 -7.514000000000e-01  5.227000000000e-01
 h       6                    1 -1.275200000000e+00  7.516000000000e-01 -5.279000000000e-01
[GTO]
1
 s           5
      1.238401693800e+03      5.517365048110e-03
      1.862900499200e+02      4.108882855595e-02
      4.225117634600e+01      1.822538212649e-01
      1.167655793200e+01      4.682845943743e-01
      3.593050648200e+00      4.457581733600e-01
 s           1
      4.024514736300e-01      1.000000000000e+00
 s           1
      1.309018266800e-01      1.000000000000e+00
 p           3
      9.468097062100e+00      5.688833201104e-02
      2.010354514200e+00      3.129405933647e-01
      5.477100470700e-01      7.606501650914e-01
 p           1
      1.526861379500e-01      1.000000000000e+00
 d           1
      8.000000000000e-01      1.000000000000e+00

2
 s           5
      1.238401693800e+03      5.517365048110e-03
      1.862900499200e+02      4.108882855595e-02
      4.225117634600e+01      1.822538212649e-01
      1.167655793200e+01      4.682845943743e-01
      3.593050648200e+00      4.457581733600e-01
 s           1
      4.024514736300e-01      1.000000000000e+00
 s           1
      1.309018266800e-01      1.000000000000e+00
 p           3
      9.468097062100e+00      5.688833201104e-02
      2.010354514200e+00      3.129405933647e-01
      5.477100470700e-01      7.606501650914e-01
 p           1
      1.526861379500e-01      1.000000000000e+00
 d           1
      8.000000000000e-01      1.000000000000e+00

3
 s           3
      1.301070100000e+01      3.348548481299e-02
      1.962257200000e+00      2.347218708812e-01
      4.445379600000e-01      8.137702852596e-01
 s           1
      1.219496200000e-01      1.000000000000e+00
 p           1
      8.000000000000e-01      1.000000000000e+00

4
 s           3
      1.301070100000e+01      3.348548481299e-02
      1.962257200000e+00      2.347218708812e-01
      4.445379600000e-01      8.137702852596e-01
 s           1
      1.219496200000e-01      1.000000000000e+00
 p           1
      8.000000000000e-01      1.000000000000e+00

5
 s           3
      1.301070100000e+01      3.348548481299e-02
      1.962257200000e+00      2.347218708812e-01
      4.445379600000e-01      8.137702852596e-01
 s           1
      1.219496200000e-01      1.000000000000e+00
 p           1
      8.000000000000e-01      1.000000000000e+00

6
 s           3
      1.301070100000e+01      3.348548481299e-02
      1.962257200000e+00      2.347218708812e-01
      4.445379600000e-01      8.137702852596e-01
 s           1
      1.219496200000e-01      1.000000000000e+00
 p           1
      8.000000000000e-01      1.000000000000e+00


[5D]
[7F]
[9G]
[MO]
 Ene=  -11.306149
 Spin=  Alpha
 Occup=    2.000000
   1     0.0057770776869661
   2    -0.0021823816938805
   3     0.0056377619320144
   4     0.0014533654612177
   5     0.0000000312195854
   6     0.0000010163948064
   7    -0.0021969853279559
   8    -0.0000007385781586
   9    -0.0000011938906222
  10     0.0003888412200309
  11    -0.0000008976772049
  12    -0.0002120657539829
  13    -0.0003281657103475
  14     0.0000004382230642
  15     0.9910164888529952
  16     0.0346228088451574
  17    -0.0225987129699234
  18    -0.0006363825138755
  19     0.0000004757533908
  20    -0.0000008033456446
  21    -0.0007100645775076
  22    -0.0000015454383502
  23     0.0000005727280976
  24    -0.0010265307651382
  25     0.0000009452343069
  26    -0.0012176102267887
  27     0.0008364035057866
  28     0.0000024402442783
  29     0.0002257582266195
  30     0.0004859201805052
  31    -0.0004647311700513
  32    -0.0001701965185601
  33    -0.0001217157469674
  34     0.0002255444479974
  35     0.0004860076239433
  36    -0.0004648737240066
  37     0.0001701288915013
  38     0.0001211132978790
  39    -0.0021399665664965
  40     0.0047103431681971
  41    -0.0006834711808165
  42    -0.0011068315790213
  43     0.0007727389622970
  44    -0.0021374594664102
  45     0.0047102030654437
  46    -0.0006808168036183
  47     0.0011065473210690
  48    -0.0007735652781953
 Ene=  -11.195452
 Spin=  Alpha
 Occup=    2.000000
   1    -0.9907451535362477
   2    -0.0357758872028976
   3     0.0236053982533469
   4     0.0000810472974033
   5    -0.0000000201444269
   6    -0.0000001893033393
   7    -0.0010177966314016
   8    -0.0000012850449336
   9    -0.0000000127199964
  10     0.0008052440059201
  11    -0.0000013300479952
  12    -0.0012075421844612
  13    -0.0004956180503534
  14     0.0000008507645721
  15     0.0055562124003727
  16     0.0025497055836257
  17    -0.0065341429516074
  18     0.0015360852181863
  19     0.0000003244620686
  20     0.0000009071913517
  21    -0.0019605910297761
  22     0.0000037218108432
  23    -0.0000039671342905
  24    -0.0004472438799229
  25     0.0000009744284417
  26    -0.0000950345492905
  27     0.0004840127340132
  28     0.0000000595240391
  29     0.0023272530615129
  30    -0.0051166739935355
  31    -0.0006402906667964
  32    -0.0010179861824614
  33    -0.0007078849210217
  34     0.0023265881037428
  35    -0.0051162344901333
  36    -0.0006417655409356
  37     0.0010181665703036
  38     0.0007071082899047
  39    -0.0001008455521218
  40    -0.0001322614765855
  41    -0.0004084878497200
  42    -0.0001081611218057
  43     0.0000796172086985
  44    -0.0001028041429565
  45    -0.0001387690164019
  46    -0.0004097734117007
  47     0.0001085855427562
  48    -0.0000805075694358
 Ene=   -1.013150
 Spin=  Alpha
 Occup=    2.000000
   1    -0.1834385991122169
   2     0.3449699325064643
   3     0.1134540630518348
   4    -0.1226668998138492
   5    -0.0000094974944901
   6    -0.0000764421007320
   7    -0.0261530907806422
   8    -0.0000086127705549
   9    -0.0000158104244830
  10    -0.0090170715167795
  11     0.0000196268009659
  12     0.0023894673669110
  13     0.0147742389135777
  14     0.0000022937412504
  15    -0.2143230766720432
  16     0.4325563076247181
  17     0.1222134652445891
  18     0.1129169497214870
  19     0.0000416511106387
  20     0.0000637735115125
  21     0.0181125391180226
  22     0.0000053172546226
  23     0.0000167694917197
  24    -0.0103240242944517
  25     0.0000218013178595
  26    -0.0028781592990940
  27     0.0150079916399595
  28     0.0000078393757696
  29     0.0929250032318771
  30     0.0096698556369577
  31    -0.0085101528780064
  32    -0.0093554993505618
  33    -0.0064616929430371
  34     0.0929029140033878
  35     0.0096671673449853
  36    -0.0085186538037000
  37     0.0093507967974580
  38     0.0064490483563085
  39     0.1130760333147152
  40     0.0127665359521557
  41     0.0094324505952725
  42     0.0102104887522709
  43    -0.0073194959377994
  44     0.1131186991837768
  45     0.0127745577189826
  46     0.0094127866984687
  47    -0.0102230130271847
  48     0.0073428179304535
 Ene=   -0.785589
 Spin=  Alpha
 Occup=    2.000000
   1     0.1629877838792557
   2    -0.3169477760166810
   3    -0.1453016133886700
   4    -0.0841808839667973
   5    -0.0000238855659714
   6    -0.0000765941538375
   7    -0.0297287187227025
   8     0.0000033608129842
   9    -0.0000259594767524
  10     0.0003562532283966
  11     0.0000037457080654
  12    -0.0076462457476496
  13     0.0044380489102342
  14     0.0000045074682689
  15    -0.1355784074859223
  16     0.2821398912479020
  17     0.1332026875821280
  18    -0.2319001361694830
  19    -0.0000352163632676
  20    -0.0001573008952096
  21    -0.0817979304148408
  22    -0.0000225907194791
  23    -0.0000510759468365
  24     0.0011214596431439
  25    -0.0000135060420153
  26    -0.0092062850003199
  27    -0.0092634154540054
  28     0.0000124631486975
  29    -0.1702402983673686
  30    -0.0338282455711541
  31     0.0074837213362851
  32     0.0128015202898470
  33     0.0091896297952313
  34    -0.1701977674782155
  35    -0.0338193544228741
  36     0.0074973937319748
  37    -0.0127971589517816
  38    -0.0091783070255962
  39     0.2034669258780019
  40     0.0390558256238750
  41     0.0076991936431459
  42     0.0142743338857629
  43    -0.0102387391507280
  44     0.2032869858901151
  45     0.0390386378649677
  46     0.0076531184147272
  47    -0.0142718516015727
  48     0.0102490380427401
 Ene=   -0.604037
 Spin=  Alpha
 Occup=    2.000000
   1     0.0000939852474546
   2    -0.0001780660757081
   3    -0.0002334081176494
   4    -0.0009230957181718
   5     0.1874588616551347
   6     0.0278712544122152
   7    -0.0003248900449964
   8     0.0689047201055195
   9     0.0195424091002186
  10    -0.0000051371840556
  11     0.0089996238071877
  12    -0.0000264828492480
  13     0.0000400449354586
  14    -0.0073724927118097
  15    -0.0000685638133730
  16     0.0001805847477839
  17    -0.0000045661144208
  18     0.0010073460980537
  19     0.3605917657327875
  20    -0.1916079231182156
  21     0.0003523244157937
  22     0.1637613940536303
  23    -0.0762970573484488
  24     0.0000138592972961
  25     0.0128764660361508
  26    -0.0000100623382712
  27    -0.0000063287893362
  28    -0.0093884567035185
  29     0.1129924687252926
  30     0.0315760460746008
  31    -0.0056749472609810
  32    -0.0029040367354970
  33    -0.0046567557387895
  34    -0.1139443129364381
  35    -0.0318785850233696
  36     0.0056903373757133
  37    -0.0029591034177386
  38    -0.0046889711176343
  39    -0.2798332278249900
  40    -0.0946673862819606
  41    -0.0127040020132064
  42    -0.0089446699363242
  43     0.0074568558933370
  44     0.2793447732761430
  45     0.0945203280233456
  46     0.0126789891416168
  47    -0.0089271201806447
  48     0.0074638555255710
 Ene=   -0.586971
 Spin=  Alpha
 Occup=    2.000000
   1    -0.0204821896263675
   2     0.0313695346643349
   3     0.0960026821716374
   4     0.3974674753633876
   5     0.0007750737572443
   6     0.0005719961428367
   7     0.1288328389725842
   8     0.0002950512408824
   9     0.0002457177136485
  10     0.0065378559434012
  11     0.0000021606301835
  12     0.0090651677431057
  13    -0.0197423451935749
  14    -0.0000197846111367
  15     0.0395622464124753
  16    -0.1010472811064677
  17    -0.0220363766997968
  18    -0.3946816060166232
  19     0.0007578059806786
  20    -0.0005480428097680
  21    -0.1585241521164167
  22     0.0003751921397314
  23    -0.0002192811918463
  24     0.0041476563253842
  25     0.0000178769113759
  26    -0.0060233104304899
  27    -0.0132582161034867
  28     0.0000053474725396
  29     0.1975074036298625
  30     0.0649241062142302
  31    -0.0004669493469625
  32    -0.0116098992158899
  33    -0.0082378319244931
  34     0.1964385284963670
  35     0.0646019101765532
  36    -0.0004305644705809
  37     0.0115776373184542
  38     0.0082050596923512
  39     0.1398758410273958
  40     0.0439962651386695
  41    -0.0005543510010330
  42     0.0083777201879950
  43    -0.0059319468947082
  44     0.1407431593973505
  45     0.0443253120734263
  46    -0.0005423464209465
  47    -0.0084014272534280
  48     0.0059578144668059
 Ene=   -0.552839
 Spin=  Alpha
 Occup=    2.000000
   1    -0.0000092710834056
   2     0.0000083460369140
   3     0.0001310357569796
   4     0.0006276669175938
   5    -0.2510656718155804
   6    -0.2887255436912581
   7     0.0002438733067113
   8    -0.1100683466409649
   9    -0.1500287225168693
  10     0.0000074654063728
  11     0.0018719699993945
  12    -0.0000015870311001
  13    -0.0000155341521305
  14    -0.0129862984892508
  15     0.0000481578395888
  16    -0.0001195657253290
  17    -0.0000621862911562
  18    -0.0002310532686907
  19     0.0633790946319416
  20    -0.2047136235918346
  21    -0.0001107922452510
  22     0.0238721601602036
  23    -0.1012753776194910
  24    -0.0000015786480065
  25    -0.0088377116534602
  26    -0.0000264731464957
  27    -0.0000143468343174
  28    -0.0172324207130945
  29    -0.2754512631914715
  30    -0.0947349155340346
  31     0.0127489952998642
  32     0.0105413961626427
  33     0.0041425499721592
  34     0.2758259290497654
  35     0.0948722800763417
  36    -0.0127559527478015
  37     0.0105605393249457
  38     0.0041415743980417
  39    -0.1221584502394687
  40    -0.0431972318453259
  41    -0.0057620373117087
  42    -0.0050626136012699
  43     0.0010551557573852
  44     0.1224863557453910
  45     0.0433083268981922
  46     0.0057526039071882
  47    -0.0050873586913697
  48     0.0010819753807570
 Ene=    0.000000
 Spin=  Alpha
 Occup=    1.490749
   1     0.0000343091698819
   2    -0.0000822113274439
   3    -0.0000664028043191
   4    -0.0001044804755994
   5    -0.3418155088588610
   6     0.3830066562300402
   7    -0.0001870382037187
   8    -0.3303683239085923
   9     0.4252012667697945
  10    -0.0000188295108267
  11    -0.0165928548633397
  12    -0.0000044523712854
  13     0.0000110036371055
  14    -0.0018888739079558
  15    -0.0000056473992798
  16    -0.0000013527521965
  17     0.0001095999621867
  18    -0.0001120813344377
  19     0.0872664872058117
  20     0.0729192203520011
  21    -0.0001534687800466
  22     0.0416272992032581
  23     0.0726900097525863
  24     0.0000488585702234
  25     0.0357654879951361
  26    -0.0000273272817406
  27    -0.0000398428480688
  28    -0.0318083271000524
  29    -0.0667068163482455
  30    -0.0379120268292778
  31     0.0014858777429682
  32    -0.0086401608911710
  33     0.0162959400813540
  34     0.0667439997136539
  35     0.0379900221926961
  36    -0.0015006093818702
  37    -0.0086369521611441
  38     0.0162942501224229
  39    -0.1658522017208315
  40    -0.1910954096877659
  41     0.0000386072508264
  42    -0.0007733360134577
  43     0.0039386451320162
  44     0.1659262509285086
  45     0.1911225578952992
  46    -0.0000580991795307
  47    -0.0007898346819714
  48     0.0039528068689937
 Ene=    0.000000
 Spin=  Alpha
 Occup=    0.509251
   1     0.0000096822407891
   2    -0.0000228297736582
   3    -0.0000371098172479
   4    -0.0000509493116220
   5    -0.0120402372606143
   6     0.1290226396005950
   7    -0.0001081061771281
   8    -0.0796170290422146
   9     0.2050379539100158
  10     0.0000297494559923
  11     0.0256932509084429
  12     0.0000241453556285
  13    -0.0000286095445828
  14     0.0339519782446142
  15    -0.0000078698492522
  16     0.0000025031551375
  17     0.0001274273302942
  18     0.0003046065741216
  19    -0.3278075643975368
  20    -0.4269989555987021
  21     0.0002669648594616
  22    -0.3932325590869503
  23    -0.4309029325042659
  24     0.0000212770744996
  25     0.0106238569469946
  26    -0.0000149804386546
  27    -0.0000113358727679
  28    -0.0178327952370747
  29     0.1624784161909123
  30     0.1455139251210157
  31     0.0012838285315620
  32    -0.0072342540124675
  33     0.0036592168199937
  34    -0.1624789052992406
  35    -0.1455015867290022
  36    -0.0012839929835652
  37    -0.0072367175563714
  38     0.0036579829791173
  39    -0.0615795639336738
  40    -0.1204747972673061
  41     0.0016269521803565
  42    -0.0105416456134427
  43    -0.0128144634586525
  44     0.0615631072738516
  45     0.1204113662984418
  46    -0.0016152101149545
  47    -0.0105441537795953
  48    -0.0128076052862819
 Ene=    0.199524
 Spin=  Alpha
 Occup=    0.000000
   1     0.0022857796694251
   2     0.0215786439030033
   3     0.0721096722871836
   4     0.0606307970706562
   5     0.0000451714295605
   6     0.0000271701448447
   7     0.1989026385797793
   8     0.0002319193332679
   9     0.0001415072932750
  10    -0.0018140991767871
  11     0.0000051967771290
  12     0.0064022111814780
  13     0.0042472965871823
  14    -0.0000009736533948
  15    -0.1171454919387284
  16     0.1839858694186497
  17     2.2985131042560334
  18    -0.1738150355187888
  19     0.0000527289960499
  20    -0.0001525071847232
  21    -0.6979638510763204
  22     0.0001939421258996
  23    -0.0006808995488578
  24    -0.0010518853294529
  25    -0.0000020312230048
  26    -0.0024293672068801
  27     0.0000167442589152
  28     0.0000066581548571
  29     0.0280818653469646
  30    -0.1565410100472490
  31     0.0021873538492900
  32     0.0005227252021459
  33     0.0026638067487552
  34     0.0280927917893302
  35    -0.1562070998358110
  36     0.0021843749227843
  37    -0.0005214924967710
  38    -0.0026557883970430
  39    -0.0194839593988643
  40    -1.5814766295779741
  41    -0.0019272731313481
  42    -0.0042193139964118
  43     0.0031821338657045
  44    -0.0195354369220053
  45    -1.5809486003988995
  46    -0.0019125709276852
  47     0.0042242386106906
  48    -0.0031867360796968
 Ene=    0.230408
 Spin=  Alpha
 Occup=    0.000000
   1    -0.1215934424076521
   2     0.1635528336305717
   3     2.7337607632952170
   4     0.1255969252907955
   5    -0.0000049305203097
   6     0.0001598508771979
   7     0.5009151188356259
   8    -0.0000996316078400
   9     0.0007690817848928
  10    -0.0020892215149712
  11     0.0000091463161396
  12     0.0053818207008874
  13    -0.0015173859345084
  14    -0.0000136420548942
  15     0.0183625955341279
  16     0.0260601173834957
  17    -0.6528185106508297
  18    -0.0228735224989288
  19     0.0002173447345290
  20    -0.0001957286740876
  21    -0.2240317771535408
  22     0.0008894885628806
  23    -0.0009093108058736
  24    -0.0031793948457326
  25     0.0000172465992507
  26    -0.0082194069099504
  27     0.0088036543833706
  28     0.0000034826587954
  29    -0.0086760102820740
  30    -1.6492873963202805
  31     0.0051192912172469
  32     0.0044976902600990
  33     0.0028022663860694
  34    -0.0086752408350119
  35    -1.6487340079316437
  36     0.0051223915031154
  37    -0.0044984547783075
  38    -0.0027886604575709
  39     0.0397483908424962
  40     0.1323431764201489
  41    -0.0015948446035782
  42     0.0008278443935136
  43     0.0024541207741353
  44     0.0397368485896567
  45     0.1295121806818404
  46    -0.0016025917521463
  47    -0.0008197870015895
  48    -0.0024702182182556
 Ene=    0.250651
 Spin=  Alpha
 Occup=    0.000000
   1    -0.0000716884006584
   2     0.0000466837665352
   3     0.0034031879176544
   4     0.0002684443031614
   5    -0.0687299990699353
   6    -0.1006359638470077
   7     0.0005008466335133
   8    -0.1362548859299393
   9    -0.6234080346383384
  10    -0.0000112759662552
  11    -0.0087048105270241
  12     0.0000010978051768
  13    -0.0000021774351743
  14     0.0095937459709843
  15    -0.0000039567646250
  16     0.0001249375222131
  17    -0.0012473020848720
  18    -0.0002193578736746
  19    -0.2426625733656414
  20     0.1968211804168606
  21    -0.0017702994169346
  22    -0.9137033834712214
  23     0.8992980394439212
  24    -0.0000064568309797
  25    -0.0092108637087294
  26    -0.0000021627800047
  27     0.0000071243389881
  28     0.0002282250306961
  29    -0.0021804540403367
  30     0.6399100996697142
  31    -0.0032037118748028
  32    -0.0013883248364254
  33    -0.0035072765401423
  34     0.0020885649203898
  35    -0.6429108942896881
  36     0.0032280700902467
  37    -0.0013937107744352
  38    -0.0034994393789531
  39     0.0116296326102577
  40    -1.5951018375940211
  41    -0.0072099164224478
  42    -0.0042497380492434
  43     0.0048162518339825
  44    -0.0115562396062119
  45     1.5952386373005516
  46     0.0072323382323571
  47    -0.0042433968207863
  48     0.0048120926392376
 Ene=    0.281376
 Spin=  Alpha
 Occup=    0.000000
   1     0.0000087226240865
   2     0.0000245830456274
   3    -0.0014383045912663
   4     0.0000863782670278
   5    -0.2170735772317640
   6    -0.1515982361036598
   7     0.0008449753685148
   8    -1.3739856716219925
   9    -0.7518502300072403
  10     0.0000008545545107
  11     0.0000802134917077
  12    -0.0000064246246960
  13     0.0000083086161826
  14    -0.0092683870686665
  15    -0.0000104628263346
  16    -0.0000217779059833
  17     0.0008195479093132
  18     0.0000839014134255
  19     0.0785764939773414
  20    -0.0976917821189884
  21     0.0005107089261674
  22     0.8211089425954888
  23    -0.0919012929295938
  24    -0.0000076240630939
  25    -0.0054471452203855
  26    -0.0000116528957375
  27     0.0000064296860874
  28    -0.0155992302572992
  29    -0.0243020965853424
  30     1.7927513110127598
  31    -0.0125060572586080
  32    -0.0073756813237928
  33    -0.0052721295176787
  34     0.0243259559925658
  35    -1.7917447714683707
  36     0.0125085531445950
  37    -0.0073672812919289
  38    -0.0052574288122054
  39    -0.0143960360033222
  40     0.7765601119755604
  41     0.0061138923580629
  42     0.0018550311535845
  43    -0.0027603351986206
  44     0.0143472886519565
  45    -0.7768804405859436
  46    -0.0061226154899674
  47     0.0018471370776403
  48    -0.0027690670879804
 Ene=    0.469996
 Spin=  Alpha
 Occup=    0.000000
   1    -0.0757542840301965
   2     0.1635885209175172
   3     4.6578799010770817
   4    -0.1939122155575861
   5    -0.0001125865131818
   6    -0.0000312673808560
   7    -3.2860984584313613
   8    -0.0006738284194254
   9    -0.0019341714613285
  10     0.0013829519338433
  11    -0.0000031955436886
  12     0.0168370731756959
  13    -0.0112739604542788
  14    -0.0000386636180753
  15     0.0697190910757434
  16    -0.0960359839782628
  17    -4.7070016939141874
  18    -0.1223511375317363
  19     0.0000142991252084
  20    -0.0001416818630807
  21    -3.3577526025917925
  22    -0.0002362451904156
  23    -0.0024824260258864
  24    -0.0105416820504932
  25     0.0000054901183707
  26     0.0114673268771367
  27     0.0234177023569412
  28     0.0000389248207681
  29     0.0991257189131394
  30     0.2255877712162864
  31    -0.0057018979934162
  32     0.0030913048166455
  33     0.0028199668602052
  34     0.0992710636765732
  35     0.2254184093187401
  36    -0.0056833955698091
  37    -0.0031093582455997
  38    -0.0028041253623875
  39    -0.0737933514560481
  40    -0.2584168523510885
  41    -0.0163040275100098
  42     0.0033394505987715
  43    -0.0028468192078340
  44    -0.0747748829637375
  45    -0.2564066782763625
  46    -0.0162027876307995
  47    -0.0033141295266086
  48     0.0027972178198985
 Ene=    0.564521
 Spin=  Alpha
 Occup=    0.000000
   1     0.0786325872511838
   2    -0.7122142533478292
   3     0.6435377798944208
   4     0.3570343798239755
   5     0.0002018963236234
   6     0.0000448512190992
   7    -0.6817899858567681
   8     0.0000022016877470
   9    -0.0008609496611890
  10     0.0296008085713100
  11    -0.0000634034034216
  12    -0.0049483402026873
  13    -0.0441981631922629
  14     0.0000174049934922
  15     0.1156726089433151
  16    -0.9547187043134218
  17     1.0115191330821589
  18    -0.3898833505797694
  19     0.0001946854195783
  20    -0.0003903851968601
  21     0.6259526400587756
  22    -0.0005465735088004
  23     0.0010673939465288
  24     0.0304797329950758
  25    -0.0000352412770400
  26     0.0113700406923850
  27    -0.0434752369334078
  28    -0.0000917974357328
  29     0.0536692956972414
  30    -0.2411052569208706
  31    -0.0351266411634620
  32     0.0017525052763690
  33     0.0023622174483144
  34     0.0533414507161277
  35    -0.2410697363852681
  36    -0.0351637290802213
  37    -0.0017423972295050
  38    -0.0024497682989095
  39    -0.0411030750664189
  40    -0.1980277180607520
  41     0.0342820737164513
  42    -0.0042619816381927
  43     0.0037445592968144
  44    -0.0396589856079723
  45    -0.1995234691615267
  46     0.0341816297497037
  47     0.0042518020152692
  48    -0.0036667504667222
 Ene=    0.672556
 Spin=  Alpha
 Occup=    0.000000
   1    -0.0387557149030477
   2     0.4339733812549531
   3    -1.8920685009583806
   4     0.0985749146053722
   5    -0.0003881519021693
   6     0.0004855398663344
   7    -0.6008303167476020
   8     0.0006346110689566
   9    -0.0003281673576069
  10    -0.0196205665951563
  11    -0.0000071649371665
  12     0.0505459654746074
  13    -0.0251819243506394
  14    -0.0001029526963391
  15    -0.0588594034987736
  16     0.5979013446855881
  17    -1.6634251148186630
  18    -0.1440220505614185
  19    -0.0000160524461470
  20    -0.0000526340199886
  21     1.1941202548361096
  22    -0.0000789754253455
  23     0.0005263377799606
  24    -0.0251626036735896
  25     0.0000135579068510
  26    -0.0579916377107038
  27    -0.0222869350781351
  28     0.0001113868801394
  29     0.4992359063380510
  30     0.3921461966757335
  31    -0.0126508393110636
  32     0.0231693554899383
  33     0.0122342925927291
  34     0.4999682580756140
  35     0.3919911016309154
  36    -0.0126098496955985
  37    -0.0232078738132490
  38    -0.0121656369052266
  39     0.5733843535370005
  40     0.5235122657025565
  41     0.0272240773421653
  42    -0.0195360381294382
  43     0.0103690435445022
  44     0.5728010121055046
  45     0.5230847909702158
  46     0.0272770791178225
  47     0.0195104946875951
  48    -0.0103394759136655
 Ene=    0.699791
 Spin=  Alpha
 Occup=    0.000000
   1    -0.0005846825770075
   2     0.0073491178784074
   3    -0.0257921549616108
   4     0.0010563795000803
   5     0.1858216359784598
   6    -0.1606857275431564
   7     0.0022394414109942
   8    -0.3752178799414807
   9    -0.6505407768363043
  10    -0.0002368126210121
  11     0.0021485199319651
  12     0.0006314343923588
  13     0.0000499440407666
  14     0.0901198514310620
  15     0.0001438065889405
  16    -0.0032160298121336
  17     0.0209606278709349
  18     0.0022094103701614
  19     0.0068752140957211
  20    -0.0033068238924164
  21    -0.0011778639301899
  22    -0.5463149741903518
  23     0.8682742944243698
  24     0.0001142140805113
  25     0.0292038909491038
  26     0.0002986600453815
  27    -0.0000543977156454
  28    -0.1159677667259669
  29     0.4369389581635111
  30    -0.0140786995783057
  31     0.0348161567629870
  32     0.0179850071877937
  33    -0.0310882042991646
  34    -0.4285024399931484
  35     0.0197847463196920
  36    -0.0349645756846607
  37     0.0177885402472671
  38    -0.0312959977592569
  39    -0.7014406427877712
  40     0.1391083614916976
  41     0.0575412896361653
  42     0.0086295537920286
  43     0.0206653279789033
  44     0.6955446548928051
  45    -0.1436792488808077
  46    -0.0581593225249377
  47     0.0085719327164515
  48     0.0206126000214908
 Ene=    0.709205
 Spin=  Alpha
 Occup=    0.000000
   1    -0.0612890734155289
   2     0.8684995116355855
   3    -4.1251952807675005
   4     0.1862524759475770
   5    -0.0010236145693488
   6     0.0010271329347169
   7     0.6927079246778698
   8     0.0022811010974597
   9     0.0056011564642272
  10    -0.0252656329504892
  11    -0.0000121080280618
  12     0.0723233601156697
  13     0.0071147518499719
  14    -0.0007010196893369
  15     0.0379337802776595
  16    -0.6497370133344204
  17     3.9516579501694507
  18     0.2678840997465138
  19    -0.0006486186504639
  20     0.0002464433158727
  21     0.4832249141819843
  22     0.0055140090898343
  23    -0.0066295079957736
  24     0.0172121897890569
  25    -0.0002171806794843
  26     0.0682851365632713
  27    -0.0046373005674911
  28     0.0007747590158594
  29     0.5231184198951958
  30     0.3217853998359837
  31    -0.0186304416901715
  32     0.0083001980937361
  33     0.0091538779956251
  34     0.5296822118361832
  35     0.3213050442280153
  36    -0.0180333936945696
  37    -0.0085298167239408
  38    -0.0087547873954669
  39    -0.4459440981508657
  40    -0.3541409011569599
  41    -0.0296065385118762
  42    -0.0001125776575371
  43    -0.0037725122786973
  44    -0.4563385724184403
  45    -0.3527885376253387
  46    -0.0289443104173800
  47     0.0000397345262114
  48     0.0033545549898762
 Ene=    0.721470
 Spin=  Alpha
 Occup=    0.000000
   1     0.0000211027587544
   2    -0.0003014082034823
   3     0.0006209737142925
   4     0.0000733751881843
   5     0.1676792005607441
   6    -0.2206446417801627
   7    -0.0000409684668252
   8    -0.2378631825696873
   9     0.1664911776821700
  10     0.0000709350385490
  11     0.0516869465860305
  12    -0.0000048963283303
  13    -0.0000523262335054
  14     0.0172098479496028
  15    -0.0000172979797432
  16     0.0002968770632327
  17    -0.0012458022577415
  18     0.0004255559910799
  19    -0.5690845067244071
  20    -0.7914391504393753
  21     0.0000281677459193
  22     0.7774747878327627
  23     0.7865510390538246
  24    -0.0000563039744025
  25    -0.0362979135702561
  26    -0.0000360337788945
  27     0.0000253374527735
  28     0.0113066219450543
  29     0.0045825474644491
  30    -0.2377270325805027
  31    -0.0269330596331371
  32     0.0102964522767727
  33     0.0046831231580029
  34    -0.0048637502623409
  35     0.2375347985143904
  36     0.0269271295853578
  37     0.0102963951339564
  38     0.0047247099242327
  39     0.0959651673992424
  40    -0.0550662200831402
  41     0.0021385171435664
  42    -0.0150431736450178
  43    -0.0192744755883085
  44    -0.0953520402834436
  45     0.0557366706823060
  46    -0.0020663428636729
  47    -0.0150236138254419
  48    -0.0193004038495383
 Ene=    0.779445
 Spin=  Alpha
 Occup=    0.000000
   1    -0.0000299279044389
   2     0.0001794510783312
   3    -0.0010103599119520
   4     0.0003466086947384
   5     0.5508435793558426
   6    -0.7895973109899788
   7    -0.0003846254814370
   8    -0.5158178757246217
   9     1.0680155066778814
  10     0.0000106398800971