[Molden Format]
[Atoms] Angs
 c       1                    6  7.395000000000e-01  0.000000000000e+00 -1.000000000000e-03
 c       2                    6 -6.252000000000e-01 -2.000000000000e-04 -1.900000000000e-03
 h       3                    1  1.297100000000e+00  7.749000000000e-01  5.397000000000e-01
 h       4                    1  1.298100000000e+00 -7.748000000000e-01 -5.410000000000e-01
 h       5                    1 -1.276900000000e+00 -7.514000000000e-01  5.227000000000e-01
 h       6                    1 -1.275200000000e+00  7.516000000000e-01 -5.279000000000e-01
[GTO]
1
 s           5
      1.238401693800e+03      5.517365048110e-03
      1.862900499200e+02      4.108882855595e-02
      4.225117634600e+01      1.822538212649e-01
      1.167655793200e+01      4.682845943743e-01
      3.593050648200e+00      4.457581733600e-01
 s           1
      4.024514736300e-01      1.000000000000e+00
 s           1
      1.309018266800e-01      1.000000000000e+00
 p           3
      9.468097062100e+00      5.688833201104e-02
      2.010354514200e+00      3.129405933647e-01
      5.477100470700e-01      7.606501650914e-01
 p           1
      1.526861379500e-01      1.000000000000e+00
 d           1
      8.000000000000e-01      1.000000000000e+00

2
 s           5
      1.238401693800e+03      5.517365048110e-03
      1.862900499200e+02      4.108882855595e-02
      4.225117634600e+01      1.822538212649e-01
      1.167655793200e+01      4.682845943743e-01
      3.593050648200e+00      4.457581733600e-01
 s           1
      4.024514736300e-01      1.000000000000e+00
 s           1
      1.309018266800e-01      1.000000000000e+00
 p           3
      9.468097062100e+00      5.688833201104e-02
      2.010354514200e+00      3.129405933647e-01
      5.477100470700e-01      7.606501650914e-01
 p           1
      1.526861379500e-01      1.000000000000e+00
 d           1
      8.000000000000e-01      1.000000000000e+00

3
 s           3
      1.301070100000e+01      3.348548481299e-02
      1.962257200000e+00      2.347218708812e-01
      4.445379600000e-01      8.137702852596e-01
 s           1
      1.219496200000e-01      1.000000000000e+00
 p           1
      8.000000000000e-01      1.000000000000e+00

4
 s           3
      1.301070100000e+01      3.348548481299e-02
      1.962257200000e+00      2.347218708812e-01
      4.445379600000e-01      8.137702852596e-01
 s           1
      1.219496200000e-01      1.000000000000e+00
 p           1
      8.000000000000e-01      1.000000000000e+00

5
 s           3
      1.301070100000e+01      3.348548481299e-02
      1.962257200000e+00      2.347218708812e-01
      4.445379600000e-01      8.137702852596e-01
 s           1
      1.219496200000e-01      1.000000000000e+00
 p           1
      8.000000000000e-01      1.000000000000e+00

6
 s           3
      1.301070100000e+01      3.348548481299e-02
      1.962257200000e+00      2.347218708812e-01
      4.445379600000e-01      8.137702852596e-01
 s           1
      1.219496200000e-01      1.000000000000e+00
 p           1
      8.000000000000e-01      1.000000000000e+00


[5D]
[7F]
[9G]
[MO]
 Ene=  -11.254562
 Spin=  Alpha
 Occup=    2.000000
   1    -0.0766622725263119
   2    -0.0003004361025616
   3    -0.0039397742659163
   4    -0.0015098875098173
   5    -0.0000000774920656
   6    -0.0000010316069000
   7     0.0020940046879042
   8     0.0000006358900722
   9     0.0000012238236598
  10    -0.0003929241795946
  11     0.0000008809273839
  12     0.0001216434185702
  13     0.0003070777812840
  14    -0.0000003826704960
  15    -0.9879854001970100
  16    -0.0346449953734313
  17     0.0220398066329535
  18     0.0005671876634463
  19    -0.0000004171320147
  20     0.0000008856252480
  21     0.0005893820144351
  22     0.0000017357012741
  23    -0.0000008610965201
  24     0.0009516888785117
  25    -0.0000007489444885
  26     0.0011053457784237
  27    -0.0007927661628665
  28    -0.0000023257545698
  29    -0.0000575572916404
  30    -0.0008464574953303
  31     0.0004202789953758
  32     0.0000994303321560
  33     0.0000764529179711
  34    -0.0000573636686875
  35    -0.0008464996855384
  36     0.0004203311407728
  37    -0.0000993550324852
  38    -0.0000759053263147
  39     0.0021425104357929
  40    -0.0047009097880930
  41     0.0006497408848047
  42     0.0011123988679829
  43    -0.0007351040625830
  44     0.0021399629085238
  45    -0.0047011702370603
  46     0.0006470934643760
  47    -0.0011121090011653
  48     0.0007358742098719
 Ene=  -11.246060
 Spin=  Alpha
 Occup=    2.000000
   1    -0.9879155774453472
   2    -0.0354247053095354
   3     0.0239603471443136
   4    -0.0001400817850747
   5    -0.0000002639662012
   6    -0.0000001707639524
   7    -0.0011068149432542
   8    -0.0000012393308939
   9    -0.0000000924571269
  10     0.0009102851831926
  11    -0.0000013860388577
  12    -0.0013208453167461
  13    -0.0004897125439600
  14     0.0000009136350934
  15     0.0764605304691165
  16     0.0049519216324951
  17    -0.0081770229725681
  18     0.0014081494760104
  19     0.0000004009238997
  20     0.0000008136107374
  21    -0.0020861229666178
  22     0.0000034661673032
  23    -0.0000038584225294
  24    -0.0005188818079613
  25     0.0000009813437738
  26    -0.0001687718470240
  27     0.0004481220275526
  28     0.0000002053824168
  29     0.0023173907646733
  30    -0.0050662854850695
  31    -0.0006812494512324
  32    -0.0010572193215453
  33    -0.0006971020088959
  34     0.0023166851069162
  35    -0.0050657911791918
  36    -0.0006827061965376
  37     0.0010573612256218
  38     0.0006962410140317
  39    -0.0002585454069482
  40     0.0002026756080100
  41    -0.0004498183890086
  42    -0.0001855057311000
  43     0.0001294043873494
  44    -0.0002602690296423
  45     0.0001963877649166
  46    -0.0004509107010623
  47     0.0001859542686349
  48    -0.0001303544819028
 Ene=   -1.009814
 Spin=  Alpha
 Occup=    2.000000
   1     0.2009918703456409
   2    -0.3884025820818043
   3    -0.1177638064171547
   4     0.1162291399922337
   5     0.0000010692678733
   6     0.0000733359968485
   7     0.0190817063587054
   8     0.0000049651810711
   9     0.0000185278649259
  10     0.0081485497891539
  11    -0.0000195550908619
  12    -0.0028296162116398
  13    -0.0147870356430768
  14    -0.0000030932619560
  15     0.1971529451541068
  16    -0.3858408634335055
  17    -0.1246463651575579
  18    -0.1191199435736181
  19    -0.0000351430419741
  20    -0.0000621452360221
  21    -0.0254901029917094
  22    -0.0000075288400046
  23    -0.0000154398972328
  24     0.0085270556972802
  25    -0.0000187024860926
  26     0.0024059616073111
  27    -0.0158260022011343
  28    -0.0000072510464409
  29    -0.1086726261441894
  30    -0.0103865435184355
  31     0.0090320959416247
  32     0.0106027333641329
  33     0.0078852984739796
  34    -0.1086374680190838
  35    -0.0103772399936700
  36     0.0090423026731412
  37    -0.0105976146480478
  38    -0.0078713141943527
  39    -0.0982011712161769
  40    -0.0108009772988694
  41    -0.0086237045411248
  42    -0.0088099583546993
  43     0.0067096918916897
  44    -0.0982438968589890
  45    -0.0107998332181243
  46    -0.0086077266317828
  47     0.0088224042011758
  48    -0.0067302247236391
 Ene=   -0.781214
 Spin=  Alpha
 Occup=    2.000000
   1     0.1498326556580246
   2    -0.3009605337224471
   3    -0.1317807529535385
   4    -0.1486914794201583
   5    -0.0000432134139704
   6    -0.0001203261216657
   7    -0.0561025064297554
   8    -0.0000052639806587
   9    -0.0000382649488627
  10     0.0010143049921173
  11     0.0000063559065475
  12    -0.0083516907551992
  13     0.0084213628337668
  14     0.0000051995148410
  15    -0.1547014408924609
  16     0.3138570078493638
  17     0.1403311692746184
  18    -0.1660788461629596
  19    -0.0000107894676807
  20    -0.0001215067122618
  21    -0.0602891571639365
  22    -0.0000139295629900
  23    -0.0000403373049510
  24    -0.0017159619969052
  25    -0.0000069886990264
  26    -0.0080188274225447
  27    -0.0071326010522609
  28     0.0000105588159204
  29    -0.1850576733114021
  30    -0.0361190997741512
  31     0.0067532944663741
  32     0.0130819316778277
  33     0.0104494523387739
  34    -0.1850028839410311
  35    -0.0361079807220884
  36     0.0067683941803997
  37    -0.0130776831791191
  38    -0.0104382929651243
  39     0.1946865701624396
  40     0.0391738740641292
  41     0.0083402695150830
  42     0.0131984991247341
  43    -0.0106309892885275
  44     0.1945674103323540
  45     0.0391660916127416
  46     0.0082983104744325
  47    -0.0131988077452752
  48     0.0106444554844968
 Ene=   -0.603781
 Spin=  Alpha
 Occup=    2.000000
   1    -0.0000260220193219
   2     0.0000533960934075
   3     0.0000438806508479
   4     0.0004866386886908
   5    -0.3331834758690715
   6    -0.1564785971063181
   7     0.0002048870012752
   8    -0.1368904725587966
   9    -0.0546452689392660
  10    -0.0000063417627272
  11    -0.0086064019690539
  12     0.0000021252820826
  13    -0.0000059181428545
  14    -0.0060924624762387
  15     0.0000009112860809
  16    -0.0000107414363417
  17     0.0000721675258614
  18    -0.0003616651669515
  19    -0.2434282172737473
  20     0.0516631580540375
  21    -0.0000937882918950
  22    -0.1032510574662376
  23     0.0111574216650135
  24    -0.0000139595725420
  25    -0.0112405157801486
  26     0.0000026221445310
  27     0.0000117156893592
  28    -0.0016209076561508
  29    -0.2580682811231206
  30    -0.0828551090210948
  31     0.0109272905342584
  32     0.0085872325225185
  33     0.0078306746114241
  34     0.2583995717441502
  35     0.0829670973926284
  36    -0.0109423793125837
  37     0.0086044237453642
  38     0.0078310004337401
  39     0.1569822542869892
  40     0.0542887498776579
  41     0.0076206124999936
  42     0.0041626028287500
  43    -0.0052367926251771
  44    -0.1567832801279002
  45    -0.0542281241564054
  46    -0.0076032538199823
  47     0.0041577179965428
  48    -0.0052423033934578
 Ene=   -0.588818
 Spin=  Alpha
 Occup=    2.000000
   1    -0.0041540269681570
   2     0.0200118820070410
   3    -0.0421993744564595
   4    -0.4050467999137861
   5    -0.0005407775495247
   6    -0.0006455341642990
   7    -0.1481686922623782
   8    -0.0002404691023119
   9    -0.0002598286989077
  10    -0.0038675177192256
  11     0.0000163731322529
  12    -0.0079782202295993
  13     0.0187585546478846
  14    -0.0000126256035140
  15    -0.0189228345826903
  16     0.0508621375670729
  17    -0.0234096430467449
  18     0.3997843744415261
  19     0.0001181095458395
  20     0.0000079831349270
  21     0.1460588534854957
  22     0.0000601243783990
  23    -0.0000268215595070
  24    -0.0027790200915948
  25     0.0000049859931743
  26     0.0064934170550904
  27     0.0158552441996005
  28    -0.0000374562497549
  29    -0.1733300544487714
  30    -0.0559492284692557
  31    -0.0010002817928525
  32     0.0100204733844552
  33     0.0075377960659472
  34    -0.1724552124858033
  35    -0.0556858199434477
  36    -0.0010230115967229
  37    -0.0099897887061508
  38    -0.0075183045608736
  39    -0.1658510460401590
  40    -0.0537650354293712
  41    -0.0006013506102443
  42    -0.0097017903109043
  43     0.0072500933408391
  44    -0.1652797925537478
  45    -0.0536091883628932
  46    -0.0005444155013340
  47     0.0096801283666990
  48    -0.0072431380035889
 Ene=   -0.550825
 Spin=  Alpha
 Occup=    2.000000
   1     0.0000328156249821
   2    -0.0000955146969705
   3     0.0000684895911725
   4     0.0007247635629572
   5    -0.1169033647113023
   6    -0.2215099488446520
   7     0.0002865172556888
   8    -0.0655222045586126
   9    -0.1121021214830220
  10     0.0000129841070028
  11     0.0082100204911365
  12    -0.0000032842985670
  13    -0.0000240104995562
  14    -0.0171270114549403
  15     0.0000511527962107
  16    -0.0001236197879586
  17    -0.0000380568148843
  18    -0.0003201649617219
  19     0.2487681862818583
  20    -0.2649805562981454
  21    -0.0001265413876350
  22     0.1289274254118688
  23    -0.1299341607151050
  24     0.0000073185979355
  25    -0.0034700603243046
  26    -0.0000379331540149
  27    -0.0000393885273518
  28    -0.0192534195674326
  29    -0.1647889174028492
  30    -0.0527727503892184
  31     0.0069008553649145
  32     0.0070306695193399
  33     0.0018798628935839
  34     0.1652150347839678
  35     0.0529276482412401
  36    -0.0068974427252520
  37     0.0070542600121305
  38     0.0018900879827254
  39    -0.2558033662550611
  40    -0.0916605004587402
  41    -0.0120709077784209
  42    -0.0084687368536457
  43     0.0045757589878187
  44     0.2563461070235349
  45     0.0918686743536335
  46     0.0120534982583087
  47    -0.0085107282667764
  48     0.0046224822578123
 Ene=   -0.292864
 Spin=  Alpha
 Occup=    2.000000
   1     0.0000218817932106
   2    -0.0000540104060229
   3    -0.0000234116829159
   4    -0.0000799694082272
   5    -0.2528682243547834
   6     0.2780400927194461
   7    -0.0001342310229810
   8    -0.2266001094396082
   9     0.2888794268679594
  10    -0.0000330975168933
  11    -0.0289522910485783
  12    -0.0000159795686363
  13     0.0000244020020654
  14    -0.0175684234959306
  15    -0.0000040685647442
  16     0.0000020033615326
  17     0.0000372221743700
  18    -0.0002484386749567
  19     0.2471919520265479
  20     0.2744998151983372
  21    -0.0002935728133732
  22     0.2216426507805836
  23     0.2890166241493174
  24     0.0000366800538218
  25     0.0293133982969326
  26    -0.0000173888423586
  27    -0.0000329537522387
  28    -0.0198060448652007
  29    -0.1181135312490352
  30    -0.1080298047883533
  31    -0.0007582334919215
  32    -0.0044624880803212
  33     0.0113329326218003
  34     0.1181494040061293
  35     0.1080924623554941
  36     0.0007465927370540
  37    -0.0044575462841952
  38     0.0113343661353217
  39    -0.1294549867926794
  40    -0.1251864088832211
  41    -0.0008142517047270
  42     0.0041132526642001
  43     0.0104036673555299
  44     0.1295246014898842
  45     0.1252267125418997
  46     0.0007886983504355
  47     0.0040986028337281
  48     0.0104139558130743
 Ene=    0.080321
 Spin=  Alpha
 Occup=    0.000000
   1     0.0000230830193597
   2    -0.0000494159033930
   3    -0.0001370675633102
   4    -0.0000963752921674
   5    -0.1742253006047134
   6     0.2777353773159028
   7    -0.0001959865160987
   8    -0.2738013269745001
   9     0.4393624231761600
  10     0.0000229802728845
  11     0.0198297130101381
  12     0.0000132054251676
  13    -0.0000172334338974
  14     0.0153658924357373
  15    -0.0000035614870591
  16    -0.0000089351985221
  17     0.0001318302796983
  18     0.0001853729077077
  19    -0.1883797913881239
  20    -0.2826312919413676
  21     0.0002677403165258
  22    -0.3097314979856723
  23    -0.4450582871345371
  24     0.0000296090226049
  25     0.0199479326998312
  26    -0.0000130620324972
  27    -0.0000220708431680
  28    -0.0144688792768046
  29     0.1013700733203150
  30     0.1741498504847040
  31     0.0031698331572133
  32    -0.0096629190708069
  33     0.0109828483473880
  34    -0.1013574459847351
  35    -0.1740538060235485
  36    -0.0031780327999117
  37    -0.0096627002558049
  38     0.0109780541663968
  39    -0.1035394357197848
  40    -0.1959960059008160
  41     0.0018649444149544
  42    -0.0095990651628679
  43    -0.0114013166288188
  44     0.1035739116637059
  45     0.1960335870399146
  46    -0.0018545056755907
  47    -0.0096007832413517
  48    -0.0113910787806922
 Ene=    0.212577
 Spin=  Alpha
 Occup=    0.000000
   1    -0.0407006140354813
   2     0.0870355295660686
   3     0.9586186556488423
   4     0.1088913280672818
   5     0.0000448207460852
   6     0.0000846455430971
   7     0.3949218958223866
   8     0.0002085771425828
   9     0.0004047092497494
  10    -0.0024300167851180
  11     0.0000093832554113
  12     0.0076161925107717
  13     0.0052452829260167
  14    -0.0000025670468660
  15    -0.1029894022711302
  16     0.1661421784049998
  17     2.0214066839736100
  18    -0.1586183289941413
  19     0.0000890265482059
  20    -0.0001878001269413
  21    -0.7126371882048869
  22     0.0003910282659457
  23    -0.0008772053720480
  24    -0.0019792976924744
  25     0.0000028952596343
  26    -0.0069157864163751
  27     0.0024043009748432
  28     0.0000089784980595
  29     0.0200950074609157
  30    -0.7290400775369847
  31     0.0037628042763036
  32     0.0016925202530805
  33     0.0033893305079518
  34     0.0200943570392667
  35    -0.7285311921601112
  36     0.0037605383175199
  37    -0.0016914442508698
  38    -0.0033779239036261
  39     0.0023898011649811
  40    -1.4471132111586922
  41    -0.0027664815401062
  42    -0.0046408017535275
  43     0.0040493825081454
  44     0.0023517374482592
  45    -1.4472699992759113
  46    -0.0027546629423570
  47     0.0046466806025106
  48    -0.0040582264791489
 Ene=    0.219768
 Spin=  Alpha
 Occup=    0.000000
   1    -0.1135320617516259
   2     0.1495899897852117
   3     2.4525227154016980
   4     0.1101598673447826
   5    -0.0000309325399476
   6     0.0001087634595791
   7     0.4009642059863766
   8    -0.0001219178136584
   9     0.0004340067232059
  10    -0.0006898894835401
  11     0.0000018179243508
  12     0.0007160851912109
  13    -0.0024243540785857
  14    -0.0000070229780734
  15     0.0595100365509824
  16    -0.0485168591942305
  17    -1.3890810320162652
  18     0.0348011123894379
  19     0.0000598122432212
  20    -0.0000205145129938
  21     0.0790912337535077
  22     0.0002632794353321
  23    -0.0001324719525915
  24    -0.0016251475158369
  25     0.0000116599086276
  26    -0.0047707372799295
  27     0.0067498372484277
  28     0.0000004320940913
  29    -0.0247543551912456
  30    -1.4705626660050022
  31     0.0032334803810243
  32     0.0035812520402838
  33     0.0006350659759491
  34    -0.0247522558528313
  35    -1.4704856815483700
  36     0.0032379929873544
  37    -0.0035829596100678
  38    -0.0006295768843111
  39     0.0375937427878917
  40     0.6955193475766391
  41    -0.0003391903220149
  42     0.0028000470255664
  43     0.0010560431833238
  44     0.0375979465001526
  45     0.6943379181657238
  46    -0.0003468690687522
  47    -0.0027986121109447
  48    -0.0010639893775099
 Ene=    0.255981
 Spin=  Alpha
 Occup=    0.000000
   1     0.0000094854820402
   2     0.0000281775229621
   3    -0.0013702234207143
   4    -0.0002467824971111
   5     0.1707769619993523
   6     0.1618663297774590
   7    -0.0006177824706114
   8     0.7035700649110760
   9     0.8991371739407674
  10     0.0000115978183084
  11     0.0102127454241583
  12     0.0000046708563084
  13    -0.0000051801228435
  14    -0.0052468180330995
  15     0.0000249451102622
  16    -0.0001003228574956
  17     0.0003234070335999
  18     0.0001658952616008
  19     0.1649078012899826
  20    -0.1405090558988750
  21     0.0013416082159782
  22     0.4821954223522941
  23    -0.7759057053398439
  24     0.0000069684041208
  25     0.0097179130255585
  26     0.0000016549763931
  27    -0.0000053074499809
  28     0.0059640142299978
  29     0.0100000556268421
  30    -1.3630501215281332
  31     0.0068498364532208
  32     0.0044564659264621
  33     0.0054329432405622
  34    -0.0099204652796649
  35     1.3639980323125815
  36    -0.0068701271093031
  37     0.0044544471271824
  38     0.0054182866081352
  39    -0.0084147658876581
  40     1.0865007916269169
  41     0.0047698008535362
  42     0.0029372760624946
  43    -0.0037512187229812
  44     0.0084088757315205
  45    -1.0861162389762691
  46    -0.0047862370877245
  47     0.0029344385937206
  48    -0.0037475672909187
 Ene=    0.278926
 Spin=  Alpha
 Occup=    0.000000
   1    -0.0000004573459677
   2    -0.0000716905091651
   3     0.0021041608544028
   4     0.0000045855023831
   5     0.1581167876600779
   6     0.1054708700171080
   7    -0.0007240141141291
   8     1.1481886515957345
   9     0.3712452247939490
  10    -0.0000038641480170
  11    -0.0025910739363520
  12     0.0000060158190690
  13    -0.0000093860755814
  14     0.0157355754395012
  15    -0.0000012711588741
  16     0.0000664708975923
  17    -0.0010931555834905
  18    -0.0001545978274978
  19    -0.1847793095813922
  20     0.1519253981106193
  21    -0.0012760102273125
  22    -1.1652339285451030
  23     0.4989997385940932
  24     0.0000036306071451
  25    -0.0004648374814089
  26     0.0000126339701170
  27    -0.0000032922862446
  28     0.0120354954866560
  29     0.0243498061020657
  30    -1.2991959287347297
  31     0.0097368103546603
  32     0.0051955680378906
  33     0.0036668704825026
  34    -0.0244186674493695
  35     1.2979375504179611
  36    -0.0097310759649261
  37     0.0051886423817591
  38     0.0036601219238932
  39     0.0224569470268218
  40    -1.4291847445960961
  41    -0.0099029907512122
  42    -0.0041469794825694
  43     0.0043701525849929
  44    -0.0224178374712593
  45     1.4293352931204160
  46     0.0099227496548400
  47    -0.0041386791874400
  48     0.0043784529534598
 Ene=    0.469163
 Spin=  Alpha
 Occup=    0.000000
   1     0.0730326911340892
   2    -0.1500650756786126
   3    -4.5820921182567567
   4     0.1555176731838266
   5     0.0000988312885014
   6     0.0000202067259622
   7     3.3330031392457262
   8     0.0006504121962821
   9     0.0020310867690028
  10    -0.0030706212588603
  11     0.0000118302379990
  12    -0.0190295134675929
  13     0.0194118511856526
  14     0.0000450344580364
  15    -0.0741934980405128
  16     0.1269623152353564
  17     4.6746835291859492
  18     0.1557685193672906
  19    -0.0000218764553894
  20     0.0001593615510188
  21     3.2630246178024067
  22     0.0002502306941262
  23     0.0023429446169964
  24     0.0066300550136137
  25    -0.0000003973291691
  26    -0.0105252768331468
  27    -0.0162109189225143
  28    -0.0000332257265007
  29    -0.1380839350862014
  30    -0.2145939403608480
  31     0.0092092800583532
  32    -0.0048646131200696
  33    -0.0031147498999360
  34    -0.1382439252521790
  35    -0.2143865763030655
  36     0.0091885892290276
  37     0.0048807485698665
  38     0.0031046237420578
  39     0.0515623387418121
  40     0.2549053424273877
  41     0.0117106714821819
  42    -0.0021711444373944
  43     0.0010915594254824
  44     0.0524159325899147
  45     0.2530846853450402
  46     0.0116245222168340
  47     0.0021505503000419
  48    -0.0010555200080034
 Ene=    0.567060
 Spin=  Alpha
 Occup=    0.000000
   1     0.0913426204293636
   2    -0.7637860541263667
   3     0.5006550225547719
   4     0.3962843671386483
   5     0.0002112934634979
   6     0.0000598016402817
   7    -0.5739067158005215
   8    -0.0000424743860233
   9    -0.0007602383087383
  10     0.0306473252231929
  11    -0.0000615296561674
  12    -0.0051836634603446
  13    -0.0423056144152278
  14     0.0000256156845373
  15     0.1024729979612404
  16    -0.8920976546739348
  17     1.0889711900854311
  18    -0.3625877987418750
  19     0.0002055456573858
  20    -0.0003559207735935
  21     0.7678744871566425
  22    -0.0005391445908851
  23     0.0010790688610821
  24     0.0334992448986330
  25    -0.0000402807425414
  26     0.0105764571529959
  27    -0.0444042189884496
  28    -0.0000940076360092
  29     0.0534868834646992
  30    -0.2415588343126286
  31    -0.0334681889905873
  32     0.0013883050397730
  33     0.0024057895631261
  34     0.0530892245531273
  35    -0.2415365431663454
  36    -0.0335148642806161
  37    -0.0013787061659097
  38    -0.0024930021572096
  39    -0.0336767926450705
  40    -0.1667419603187641
  41     0.0370603757120256
  42    -0.0040266709103046
  43     0.0039926110639783
  44    -0.0321616918926134
  45    -0.1684333338485829
  46     0.0369551917535012
  47     0.0040160355775332
  48    -0.0039105757769636
 Ene=    0.666470
 Spin=  Alpha
 Occup=    0.000000
   1    -0.0610175170138124
   2     0.7775848056143212
   3    -3.7668215848977855
   4     0.1756695928540527
   5    -0.0000920297913248
   6     0.0002992438088265
   7    -0.0812912342456860
   8     0.0000951110334440
   9    -0.0006082993459568
  10    -0.0307757242468928
  11    -0.0000047123892423
  12     0.0741936632805286
  13    -0.0201736016194089
  14    -0.0000141463896630
  15    -0.0436145977895032
  16     0.2876864181192468
  17     0.3905397449366448
  18    -0.0150218783215902
  19    -0.0001141047053507
  20     0.0001316879714820
  21     1.4748378900689496
  22    -0.0002454273390316
  23     0.0013584164653759
  24    -0.0185139175105221
  25     0.0000477839384265
  26    -0.0239447131738084
  27    -0.0216099246377864
  28    -0.0000495874209527
  29     0.6610302836050810
  30     0.5048114397923569
  31    -0.0182239465219873
  32     0.0218954219243693
  33     0.0133036268661750
  34     0.6608273481389035
  35     0.5045631668867533
  36    -0.0182456576090881
  37    -0.0218835198829464
  38    -0.0133251624011841
  39     0.3270154578633263
  40     0.3553915255967657
  41     0.0126884984333563
  42    -0.0167072575414936
  43     0.0064776472256176
  44     0.3278844802503495
  45     0.3545508168023034
  46     0.0125565684309803
  47     0.0167214162182724
  48    -0.0064446444491412
 Ene=    0.701278
 Spin=  Alpha
 Occup=    0.000000
   1    -0.0002848082226331
   2     0.0031039599570115
   3    -0.0059206924901822
   4     0.0001497529144768
   5     0.2027163396493957
   6    -0.2036085164242584
   7     0.0012331505214607
   8    -0.5041271810086497
   9    -0.5912616954207655
  10    -0.0000740680487443
  11     0.0069217818404742
  12     0.0002174473772561
  13     0.0000954723331494
  14     0.0962062699306410
  15     0.0001729975687183
  16    -0.0024875168739854
  17     0.0108645456438377
  18     0.0014605403291500
  19     0.0697921342358862
  20     0.0469862364291514
  21    -0.0058835632464828
  22    -0.5615852561958309
  23     0.7487255391770901
  24     0.0001042401574588
  25     0.0190953703597253
  26     0.0002141215373368
  27     0.0000392987119283
  28    -0.1073487101600364
  29     0.4794554695561245
  30     0.0116624858279279
  31     0.0439369154901985
  32     0.0159325081303793
  33    -0.0320048354736916
  34    -0.4778751437893627
  35    -0.0100074913475389
  36    -0.0438880189304407
  37     0.0159666522763065
  38    -0.0320718252159051
  39    -0.6573617953787679
  40     0.1009857971830697
  41     0.0527477793000033
  42     0.0097663057239089
  43     0.0238334919949588
  44     0.6515918932906387
  45    -0.1055007832159443
  46    -0.0533032152582225
  47     0.0095802318371816
  48     0.0238458177826628
 Ene=    0.718139
 Spin=  Alpha
 Occup=    0.000000
   1     0.0462481952392426
   2    -0.6416372959974572
   3     3.0131796167453473
   4    -0.1455469991168361
   5    -0.0001197861456474
   6     0.0001545615923076
   7    -0.7997068568952589
   8    -0.0007980215916374
   9    -0.0042503005083213
  10     0.0126537697899172
  11    -0.0000367795862354
  12    -0.0423280873849684
  13    -0.0206323099494871
  14     0.0004235905282926
  15    -0.0554752664040774
  16     0.8182440389940808
  17    -4.1545286486816231
  18    -0.2802610518793499
  19     0.0011873328815467
  20     0.0005730193353476
  21     0.0494050868501098
  22    -0.0044368159636323
  23     0.0033761924897779
  24    -0.0266139234609576
  25     0.0001703300362985
  26    -0.0869035555787122
  27    -0.0064595823941236
  28    -0.0004028984613709
  29    -0.2459994185374793
  30    -0.1913151061828000
  31     0.0122387021607689
  32     0.0081486333327266
  33    -0.0010406818980074
  34    -0.2501532955481764
  35    -0.1914133122132685
  36     0.0117427987823854
  37    -0.0080770893164862
  38     0.0008658816433060
  39     0.6653705521472820
  40     0.4937300962675692
  41     0.0375730825492298
  42    -0.0118842116537893
  43     0.0122752957740684
  44     0.6714452520994596
  45     0.4926823129799823
  46     0.0373204067820192
  47     0.0119445501574703
  48    -0.0119404608872169
 Ene=    0.731906
 Spin=  Alpha
 Occup=    0.000000
   1     0.0000594644605813
   2    -0.0008454922784860
   3     0.0030586205221975
   4     0.0000988368908359
   5     0.3932315284645074
   6    -0.5407646864890243
   7    -0.0011424820373212
   8    -0.5037000806375108
   9     0.5866154862681245
  10     0.0000812927123999
  11     0.0556361292080085
  12    -0.0000458810701865
  13    -0.0000871650982011
  14     0.0017554535600926
  15    -0.0000937009262552
  16     0.0013829022485202
  17    -0.0061598808562599
  18    -0.0000561039881513
  19    -0.4332928612708095
  20    -0.6178024848284623
  21     0.0008338386237513
  22     0.6342881197982215
  23     0.4916102747764666
  24    -0.0001245396297511
  25    -0.0577703512041963
  26    -0.0001456178687627
  27     0.0000255278639058
  28     0.0300035643303521
  29    -0.0109765107729360
  30    -0.1538745641322919
  31    -0.0245587337009474
  32     0.0130966180118946
  33    -0.0059833860587145
  34     0.0104827495038884
  35     0.1534656759834802
  36     0.0245815496981252
  37     0.0130507932668923
  38    -0.0059437040390856
  39     0.1261275673811045
  40    -0.1641231957147105
  41     0.0090152634833118
  42    -0.0155216157643688
  43    -0.0111469630831970
  44    -0.1236540723093856
  45     0.1663632142316013
  46    -0.0088654754964201
  47    -0.0154461030119916
  48    -0.0112203669255740
 Ene=    0.779045
 Spin=  Alpha
 Occup=    0.000000
   1     0.0000155991647569
   2    -0.0000773189029420
   3     0.0009925380003281
   4    -0.0002858359645885
   5    -0.4321474805345763
   6     0.6163202586581608
   7     0.0002805095843568
   8     0.3211737247048768
   9    -0.9286341223539322
  10     0.0000248781201329