
 Primary working directories:    /u/s/ben/molpro
 Secondary working directories:  /u/s/ben/molpro

 blaslib=default         
 mxmblk= 32  mxmbln= 32  ncache=131072  mindgm= 32  mindgv= 32  mindgc= 24  mindgl=  8  mindgr=  4  noblas=0  nroll=2  minvec=7
 default implementation of scratch files=df  

 Including file /usr/localmqm/SVNBin/molpro2002.6/bin/molproi.rc
 ***,SA-2-CAS(2/2)
                                                           ! One step of S0/S1 conical intersection search in Cartesian coordinates
 memory,25,m
 FILE,2,acro.wfn
 punch,all.pun
 geometry={
 nosymm,noorient;
 C,,        -1.23007789,     -0.47542260,     -0.00040535
 C,,         1.66074825,     -0.15978637,     -0.00046894
 C,,         2.79274466,      1.68394950,      0.00013967
 O,,         5.42693612,      2.08671374,      0.00040704
 H,,        -2.04530608,     -2.21773564,     -0.00066035
 H,,        -2.28743227,      1.19202982,      0.00037352
 H,,         2.60400056,     -1.98432869,     -0.00092076
 H,,         2.86077572,      4.03161234,      0.00084190
 }
 basis=6-31g*
  
 INT
 KS
  
 MULTI
 config,csf;
 OCC,17;
 CLOSED,12;
 STATE,3;
 MAXITER,100;
 CPMCSCF,GRAD,  2.1,record=5100.1
 CPMCSCF,GRAD,  1.1,record=5101.1
 FORCES
 SAMC,5100.1
 FORCES
 SAMC,5101.1
 ---

 Variables initialized (303), CPU time= 0.01 sec
 Default parameters read. Elapsed time= 0.01 sec
 Checking input...
 Passed
1


                                         ***  PROGRAM SYSTEM MOLPRO  ***
                                      Copyright, University of Birmingham, 1997

                                    Version 2002.6 linked 15 Feb 2006 02:39:27


 **********************************************************************************************************************************
 LABEL *   SA-2-CAS(2/2)                                                                 
 Linux-2.6.9-42.0.2.ELsmp/compute-3-21.local(x86_64) 64 bit version                      DATE:   5-Jul-07         TIME: 11:56:36  
 **********************************************************************************************************************************

 Installed patches: configure_xeon corlsi darwin_conf dft_orbital_hi enest_dummy fujitsu-ssl2
                    fujitsu_conf ga_conflict2 ia64root_check lapack_init mkl60 modelopt
                    molden_orbital_normalization mpputil mxm_fujitsu nec_parse opteron2 opteron6
                    opteron_parse2 patcher_printf posinp readop_multipole_np

 Modules:           doc
 **********************************************************************************************************************************

 Variable memory set to   25000000 words,  buffer space   230000 words


 Permanent file  2  acro.wfn assigned.  Implementation=df    Size=  1.19 MB


 PROGRAM * RESTART 


 VARIABLES READ FROM FILE 2:

 FOCKDONE                         1.00000000
 SCFDONE                          1.00000000
 DIRECT                           0.00000000
 DFTNAME(1)             =    S
 DFTNAME(2)             =    VWN80
 NELEC                           30.00000000
 SPIN                             0.00000000
 PROGRAM                =    FORCES
 CPUSTEP / SEC                    3.78000000
 SYSSTEP / SEC                    0.01000000
 WALLSTEP / SEC                   3.78000000
 !DFSCF                           0.00000000
 BASINP                         600.00000000
 CPUTOT / SEC                    14.37000000
 DFTEXFAC / AU                    0.00000000
 DFTFAC(1:2) / AU                 1.00000000     1.00000000
 DFTFUN / AU                    -24.61967705
 DFTFUNS(1:2) / AU              -22.67161355    -1.94806350
 DMX / AU                         0.00000000
 DMY / AU                         0.00000000
 DMZ / AU                         0.00000000
 ENUC / AU                      101.86913140
 EPS1(1:17) / AU                -20.58390410   -11.30008080   -11.24615787   -11.23323058    -1.31642141    -1.10324503
                                 -0.92041489    -0.73907469    -0.64666031    -0.62267525    -0.55556093    -0.51417925
                                 -0.39439173    -0.37503535    -0.48106175    -0.10193069     0.71229020
 GRADENERG / AU                -190.57904167
 GRADEXFAC                        0.00000000
 GRADMETHOD                       5.00000000
 GRID                          1800.20000000
 ITERATIONS                       0.00000000
 LASTNELEC                        6.00000000
 LASTSPIN                         0.00000000
 LASTSYM                          1.00000000
 NGRID / AU                   28284.00000000
 ORBITAL                       2140.20000000
 SEIG_MIN                         0.00118927
 STATUS                           1.00000000
 SYSTOT / SEC                     1.03000000
 WALLTOT / SEC                   15.87000000
 LASTORB                =    MCSCF
 PGROUP                 =    C1  
 !NEWMOL                         -1.00000000
 !NEWSYM                         -1.00000000
 TRDMX(1:3) / AU                 -0.00018340     0.00017696    -0.13327048
 TRDMY(1:3) / AU                 -0.00016253     0.00003592    -0.06345954
 TRDMZ(1:3) / AU                 -0.00304943     0.10823908     0.00003753


 **********************************************************************************************************************************
 DATASETS  * FILE   NREC   LENGTH (MB)   RECORD NAMES
              2       8        1.25       500      600      700     1000     1800     2100     2140      701   
                                          VAR    BASINP    GEOM     BASIS    GRID      RHF     MCSCF    GEOM   

 PROGRAMS   *        TOTAL   RESTART
 CPU TIMES  *         0.04      0.00
 REAL TIME  *         0.06 SEC
 DISK USED  *         0.00 MB
 **********************************************************************************************************************************

 PUNCHFILE ALL.PUN OPENED
 SETTING BASIS          =    6-31G*


 Using spherical harmonics

 Library entry C      S 6-31G                selected for orbital group  1
 Library entry C      P 6-31G                selected for orbital group  1
 Library entry C      D 6-31G*               selected for orbital group  1
 Library entry O      S 6-31G                selected for orbital group  2
 Library entry O      P 6-31G                selected for orbital group  2
 Library entry O      D 6-31G*               selected for orbital group  2
 Library entry H      S 6-31G                selected for orbital group  3

1PROGRAM * SEWARD (Integral evaluation for generally contracted gaussian basis sets)     Author: Roland Lindh, 1990

 Geometry written to block  1 of record 702


 Point group  C1  



 ATOMIC COORDINATES

 NR  ATOM    CHARGE       X              Y              Z

   1  C       6.00   -1.230077890   -0.475422600   -0.000405350
   2  C       6.00    1.660748250   -0.159786370   -0.000468940
   3  C       6.00    2.792744660    1.683949500    0.000139670
   4  O       8.00    5.426936120    2.086713740    0.000407040
   5  H       1.00   -2.045306080   -2.217735640   -0.000660350
   6  H       1.00   -2.287432270    1.192029820    0.000373520
   7  H       1.00    2.604000560   -1.984328690   -0.000920760
   8  H       1.00    2.860775720    4.031612340    0.000841900

 Bond lengths in Bohr (Angstrom)

  1--2  2.908006535   1--5  1.923603856   1--6  1.974435733   2--3  2.163510620   2--7  2.053942502
       (1.538850898)       (1.017927397)       (1.044826470)       (1.144880598)       (1.086899643)

  3--4  2.664804637   3--8  2.348648447   4--8  3.219908376
       (1.410153987)       (1.242851324)       (1.703902257)

 Bond angles

  1--2--3  127.77981066   1--2--7  111.10688614   2--1--5  121.30607461   2--1--6  116.14815754

  2--3--4  130.24174952   2--3--8  150.11123646   3--2--7  121.11330268   3--4--8   45.85169038

  3--8--4   54.50129561   4--3--8   79.64701401   5--1--6  122.54576609

 NUCLEAR CHARGE:                   30
 NUMBER OF PRIMITIVE AOS:         128
 NUMBER OF SYMMETRY AOS:          124
 NUMBER OF CONTRACTIONS:           64   (  64A   )
 NUMBER OF CORE ORBITALS:           4   (   4A   )
 NUMBER OF VALENCE ORBITALS:       20   (  20A   )


 NUCLEAR REPULSION ENERGY  101.86913140


 Eigenvalues of metric

         1 0.119E-02 0.883E-02 0.152E-01 0.168E-01 0.396E-01 0.426E-01 0.652E-01 0.836E-01


 Contracted 2-electron integrals neglected if value below      1.0D-11
 AO integral compression algorithm  1   Integral accuracy      1.0D-11

     8.913 MB (compressed) written to integral file ( 42.4%)


 NUMBER OF SORTED TWO-ELECTRON INTEGRALS:    2164240.     BUFFER LENGTH:  32768
 NUMBER OF SEGMENTS:   1  SEGMENT LENGTH:    2164240      RECORD LENGTH: 524288

 Memory used in sort:       2.72 MW

 SORT1 READ    2586857. AND WROTE    1941529. INTEGRALS IN    6 RECORDS. CPU TIME:     0.09 SEC, REAL TIME:     0.19 SEC
 SORT2 READ    1941529. AND WROTE    2164240. INTEGRALS IN   34 RECORDS. CPU TIME:     0.09 SEC, REAL TIME:     0.16 SEC

 FILE SIZES:   FILE 1:   12.2 MBYTE,  FILE 4:   25.2 MBYTE,   TOTAL:   37.4 MBYTE

 OPERATOR DM      FOR CENTER  0  COORDINATES:    0.000000    0.000000    0.000000


 **********************************************************************************************************************************
 DATASETS  * FILE   NREC   LENGTH (MB)   RECORD NAMES
              1      20       10.47       701      600      500      702      960      900      950      970     1000     1100   
                                         GEOM    BASINP     VAR     GEOM    ABASIS   SYMINP    ZMAT    AOBASIS   BASIS      S 
                                         1400     1410     1200     1210     1080     1600      129     1650     1300     1700   
                                           T        V       H0       H01     AOSYM     SMH      P2S    MOLCAS    ERIS     OPER   

              2       9        1.27       500      600      700     1000     1800     2100     2140      701      702   
                                          VAR    BASINP    GEOM     BASIS    GRID      RHF     MCSCF    GEOM     GEOM   

 PROGRAMS   *        TOTAL       INT   RESTART
 CPU TIMES  *         0.99      0.94      0.00
 REAL TIME  *         1.77 SEC
 DISK USED  *        39.09 MB
 **********************************************************************************************************************************

 Functional: S(Slater-Dirac exchange energy)                                   Gradient terms: 0
 Functional: VWN80(Vosko-Wilk-Nusair correlation energy)                       Gradient terms: 0

 Functional: S                         Factor:  1.0000
 Functional: VWN80                     Factor:  1.0000

 Generate new grid on record  1800.2
  103960 words reserved for DFT integration

 PROGRAM * RKS-SCF (Restricted closed shell Kohn-Sham)     Authors: W. Meyer, H.-J. Werner, P.J. Knowles, 1993

 NUMBER OF ELECTRONS:      15+   15-    SPACE SYMMETRY=1    SPIN SYMMETRY=Singlet 
 CONVERGENCE THRESHOLDS:    1.00E-06 (Density)    1.00E-07 (Energy)
 MAX. NUMBER OF ITERATIONS:       60
 INTERPOLATION TYPE:            DIIS
 INTERPOLATION STEPS:              2 (START)      1 (STEP)
 LEVEL SHIFTS:                  0.00 (CLOSED)  0.00 (OPEN) 




 Molecular orbitals read from record     2100.2  Type=RHF/CANONICAL (state 1.1)

 Molecular orbital dump at record        2100.2

 ITERATION    DDIFF          GRAD             ENERGY        2-EL.EN.            DIPOLE MOMENTS         DIIS
    1      0.000D+00      0.000D+00      -190.06043844    387.000438  -1.571697  -0.538087  -0.000109    0
    2      0.000D+00      0.122D-06      -190.06043844    387.000646  -1.571921  -0.538166  -0.000124    1
    3      0.444D-05      0.102D-05      -190.06043844    387.000464  -1.571723  -0.538096  -0.000110    2
    4      0.412D-05      0.175D-07      -190.06043844    387.000461  -1.571721  -0.538096  -0.000111    3
    5      0.263D-06      0.898D-08      -190.06043844    387.000463  -1.571724  -0.538097  -0.000106    0

 Final occupancy:  15

 !RKS STATE 1.1 ENERGY               -190.06043844
 Nuclear energy                       101.86913140
 One-electron energy                 -460.81012296
 Two-electron energy                  193.50023140
 Density functional                   -24.61967827     S=-22.67161472 VWN80= -1.94806355
 Virial quotient                       -0.99726273
 !RKS STATE 1.1 DIPOLE MOMENTS:        -1.57172447    -0.53809695    -0.00010639

 ELECTRON ORBITALS
 =================


   Orb  Occ    Energy  Couls-En    Coefficients

                                   1 1s      1 1s      1 1s      1 2px     1 2py     1 2pz     1 2px     1 2py     1 2pz     1 3d0  
                                   1 3d2-    1 3d1+    1 3d2+    1 3d1-    2 1s      2 1s      2 1s      2 2px     2 2py     2 2pz  
                                   2 2px     2 2py     2 2pz     2 3d0     2 3d2-    2 3d1+    2 3d2+    2 3d1-    3 1s      3 1s   
                                   3 1s      3 2px     3 2py     3 2pz     3 2px     3 2py     3 2pz     3 3d0     3 3d2-    3 3d1+ 
                                   3 3d2+    3 3d1-    4 1s      4 1s      4 1s      4 2px     4 2py     4 2pz     4 2px     4 2py  
                                   4 2pz     4 3d0     4 3d2-    4 3d1+    4 3d2+    4 3d1-    5 1s      5 1s      6 1s      6 1s   
                                   7 1s      7 1s      8 1s      8 1s   

   1.1   2   -18.5889  -55.7150 -0.000033 -0.000363 -0.001695 -0.000305 -0.000263  0.000000  0.000426  0.000980  0.000000 -0.000116
                                -0.000090  0.000000  0.000090  0.000000  0.000013 -0.000150  0.002384 -0.000105 -0.000205  0.000000
                                -0.003863  0.003667  0.000001 -0.000048 -0.000286  0.000000 -0.000437  0.000000 -0.000020 -0.000108
                                 0.007851  0.000590 -0.000089  0.000000  0.012257  0.001883  0.000001 -0.000430 -0.000208  0.000000
                                -0.000195  0.000000  0.994310  0.034768 -0.023877 -0.001837 -0.000261  0.000000  0.007652  0.000935
                                 0.000001  0.000454 -0.000201  0.000000 -0.000748  0.000000  0.000152  0.001013 -0.000289  0.000399
                                 0.000241  0.002202 -0.000578 -0.000002

   2.1   2    -9.8416  -33.6908  0.993913  0.042815 -0.028582 -0.000009 -0.000109  0.000000 -0.000723 -0.000060 -0.000001 -0.000693
                                 0.000146  0.000000 -0.000168  0.000000 -0.001065 -0.001195  0.002260  0.000948  0.000074  0.000000
                                -0.003281 -0.001932  0.000000  0.000901 -0.000470  0.000000 -0.001655  0.000000 -0.000515 -0.000535
                                 0.002928  0.000244 -0.000192  0.000000 -0.001893 -0.002041 -0.000001 -0.000227 -0.000113  0.000000
                                -0.000441  0.000000 -0.000018 -0.000283  0.001233  0.000011 -0.000017  0.000000 -0.000517  0.000124
                                 0.000000 -0.000040 -0.000053  0.000000  0.000091  0.000000 -0.002472  0.006660 -0.002130  0.006360
                                -0.000452  0.000026  0.000040  0.000308

   3.1   2    -9.8312  -35.8900 -0.000462  0.000818 -0.001650  0.000373  0.000313  0.000000 -0.002058 -0.002309 -0.000001  0.000203
                                -0.000095  0.000000  0.000005  0.000000 -0.072589  0.003366 -0.012897  0.002544  0.004518  0.000001
                                -0.003942 -0.005004 -0.000002 -0.000908  0.000958  0.000000 -0.000814  0.000001 -0.990894 -0.045509
                                 0.024941  0.000345  0.003828  0.000001 -0.006956 -0.006727 -0.000002  0.002651 -0.003338 -0.000001
                                -0.000318 -0.000001 -0.000261 -0.001784  0.006107 -0.000516 -0.000255  0.000000 -0.005239  0.000717
                                 0.000000 -0.001812  0.000225  0.000000  0.002801  0.000000 -0.000104 -0.001811  0.000526  0.000071
                                 0.000224 -0.000603  0.001768 -0.002612

   4.1   2    -9.8062  -35.5763  0.001273 -0.001012  0.006384 -0.001010 -0.000105  0.000000  0.002193  0.001392  0.000000  0.000890
                                -0.000119  0.000000 -0.001589  0.000000  0.991152  0.047334 -0.036620  0.002052  0.004007  0.000001
                                -0.000283 -0.004135 -0.000002 -0.001920  0.002465  0.000001 -0.000978  0.000001 -0.074600 -0.010130
                                 0.016780  0.002474  0.004616  0.000002 -0.004298 -0.004395 -0.000001  0.001197 -0.001309  0.000000
                                 0.000599 -0.000001 -0.000044 -0.000515  0.001124  0.000041 -0.000018  0.000000 -0.000741  0.000010
                                 0.000000 -0.000358  0.000261  0.000000  0.000318  0.000000 -0.000346  0.000324 -0.000469 -0.000664
                                -0.001698  0.005133 -0.000141 -0.000525

   5.1   2    -0.8627  -13.3887  0.012671 -0.023499 -0.024756 -0.014063 -0.005081 -0.000002 -0.003733  0.001742  0.000001  0.001813
                                -0.000872  0.000000 -0.001455  0.000000  0.065797 -0.112461 -0.100569 -0.050835 -0.052708 -0.000020
                                -0.029734 -0.006942 -0.000004  0.004942 -0.005346 -0.000002 -0.000676 -0.000003  0.128126 -0.228021
                                -0.078201 -0.097172  0.023958  0.000001  0.005015 -0.032718 -0.000010  0.013352 -0.009031 -0.000005
                                -0.009799 -0.000004  0.180462 -0.387567 -0.401326  0.127286  0.019336  0.000013  0.066148  0.009451
                                 0.000006  0.004495 -0.004274 -0.000002 -0.013490  0.000001 -0.004038  0.002291 -0.006435  0.000307
                                -0.023351  0.003435 -0.047085  0.003485

   6.1   2    -0.7451  -12.6240  0.094338 -0.175273 -0.148391 -0.053922 -0.013388 -0.000008 -0.013372 -0.028826 -0.000010  0.009887
                                -0.003163  0.000001 -0.003618 -0.000004  0.175739 -0.304824 -0.219227 -0.019010 -0.099157 -0.000038
                                -0.004746  0.030351  0.000006  0.011911 -0.003192 -0.000001  0.004954 -0.000008  0.088670 -0.150044
                                -0.100603  0.175151  0.167184  0.000057  0.023776 -0.009538 -0.000001  0.001920 -0.008201 -0.000002
                                 0.014275 -0.000006 -0.092542  0.206677  0.216849 -0.032579  0.008687  0.000001 -0.011080  0.010923
                                 0.000002  0.002303 -0.003420 -0.000001  0.001407 -0.000002 -0.050945 -0.022984 -0.051513  0.001056
                                -0.070834  0.007252  0.006305  0.019969

   7.1   2    -0.6366  -10.8196 -0.178418  0.348385  0.312040 -0.062278 -0.030787  0.000016 -0.029741 -0.019450  0.000003 -0.011473
                                -0.001880 -0.000004 -0.009684  0.000008  0.050140 -0.079913 -0.121592 -0.182688 -0.134336 -0.000036
                                -0.070092 -0.027733 -0.000008  0.000846 -0.004996 -0.000003  0.011526 -0.000004  0.083289 -0.147461
                                -0.043406  0.085894  0.134290  0.000049 -0.002139 -0.045002 -0.000013  0.001739 -0.003762 -0.000001
                                 0.011323 -0.000005 -0.047767  0.108686  0.126560  0.008220  0.016529  0.000006  0.006271  0.016780
                                 0.000005  0.003052 -0.004604 -0.000002 -0.001292 -0.000001  0.157546  0.045770  0.134600  0.046964
                                -0.014919  0.011758 -0.001509  0.025655

   8.1   2    -0.4990  -10.5579  0.023345 -0.045711 -0.066312  0.124893 -0.170159 -0.000066  0.038552 -0.074051 -0.000027  0.001765
                                 0.000759  0.000002  0.006007 -0.000005 -0.069940  0.143820  0.104685  0.047349 -0.318460 -0.000089
                                -0.017910 -0.116686 -0.000032 -0.004420 -0.007350 -0.000001  0.001902  0.000000  0.090730 -0.170178
                                -0.108745  0.110164 -0.097195 -0.000023  0.035570 -0.095509 -0.000029  0.002152 -0.008133 -0.000003
                                 0.000180 -0.000002 -0.034866  0.081730  0.098421  0.058599 -0.043635 -0.000010  0.037471 -0.015488
                                -0.000002  0.003818  0.002658  0.000000 -0.004812  0.000000  0.026371  0.011721 -0.124359 -0.067549
                                 0.203630  0.126060 -0.097611 -0.038899

   9.1   2    -0.4356  -10.3653  0.007533 -0.016615 -0.001085  0.287218  0.306948  0.000049  0.122021  0.105891  0.000014  0.002331
                                -0.012008 -0.000002  0.011717  0.000000 -0.040250  0.087560  0.059931 -0.280592 -0.057756 -0.000016
                                -0.084582 -0.006681 -0.000004  0.000353 -0.013556 -0.000004  0.000694  0.000000  0.062172 -0.123286
                                -0.094087 -0.078891  0.094678  0.000034 -0.040193 -0.007411  0.000001  0.000561  0.003912  0.000001
                                 0.008923 -0.000003 -0.047385  0.104593  0.172009  0.118573  0.051573  0.000025  0.058512  0.033240
                                 0.000014  0.005252 -0.005541 -0.000003 -0.003920 -0.000002 -0.236041 -0.168599  0.049017  0.044696
                                 0.004955  0.007422 -0.006095  0.019474

  10.1   2    -0.4289  -10.6009 -0.009469  0.017309  0.033961 -0.189573  0.194513  0.000086 -0.077917  0.071462  0.000034 -0.002186
                                -0.008739 -0.000004 -0.003059  0.000005 -0.003837 -0.008141  0.065904  0.186948  0.126730  0.000045
                                 0.078255  0.088018  0.000029 -0.003044  0.005383  0.000002  0.003994  0.000002  0.041820 -0.096414
                                -0.229418 -0.027801 -0.328264 -0.000099  0.054150 -0.057293 -0.000013  0.003113 -0.005592 -0.000002
                                 0.005116 -0.000003 -0.054962  0.123324  0.181442  0.156013 -0.113456 -0.000026  0.083821 -0.072303
                                -0.000017  0.005051  0.013807  0.000003 -0.006142  0.000000 -0.044635 -0.038572  0.156871  0.104463
                                -0.020011 -0.005083 -0.194515 -0.149201

  11.1   2    -0.3853  -10.4537  0.002108 -0.002863  0.001929 -0.130224  0.265631  0.000106 -0.058151  0.062600  0.000032 -0.000155
                                -0.022324 -0.000007 -0.000025  0.000005  0.011692 -0.019190  0.016857  0.140613 -0.271771 -0.000057
                                 0.074960 -0.072737 -0.000010 -0.001594 -0.015842 -0.000004  0.004653  0.000000 -0.007864  0.031833
                                 0.020985  0.236897  0.111558  0.000063  0.036287  0.025507  0.000019 -0.002934 -0.007551 -0.000003
                                -0.008567  0.000003  0.061993 -0.136558 -0.218900 -0.238981 -0.016105 -0.000009 -0.131266 -0.007699
                                -0.000005 -0.006955 -0.001709  0.000000  0.006306  0.000001 -0.121921 -0.123513  0.183407  0.169321
                                 0.167205  0.137913  0.070493  0.054259

  12.1   2    -0.3540  -11.2312  0.000005 -0.000010 -0.000014  0.000033 -0.000062  0.146610  0.000019 -0.000038  0.094824  0.000001
                                 0.000000  0.008146  0.000001  0.001694  0.000003 -0.000008 -0.000004 -0.000015 -0.000088  0.361974
                                -0.000001 -0.000040  0.180308  0.000010 -0.000002  0.007607  0.000004  0.015263 -0.000002  0.000004
                                -0.000008 -0.000025 -0.000126  0.385089 -0.000008 -0.000055  0.196041 -0.000008  0.000001 -0.000622
                                -0.000004 -0.015419  0.000000  0.000001  0.000001 -0.000012 -0.000074  0.231765 -0.000007 -0.000045
                                 0.141371 -0.000003  0.000006 -0.016093  0.000000 -0.002599  0.000008  0.000004 -0.000015 -0.000012
                                -0.000011 -0.000011 -0.000005 -0.000008

  13.1   2    -0.2923  -10.9005 -0.030676  0.063515  0.169845  0.219064  0.002197 -0.000053  0.125767 -0.003780 -0.000035  0.001596
                                 0.003544  0.000002  0.002702 -0.000002  0.013391 -0.016097 -0.085644 -0.183092  0.077636  0.000014
                                -0.018948  0.023821  0.000000  0.001029  0.014475  0.000005  0.019427 -0.000005 -0.008307  0.030290
                                 0.016241  0.268516 -0.113220 -0.000022  0.049347 -0.078221 -0.000022 -0.002016 -0.004318  0.000000
                                 0.027680 -0.000007  0.030585 -0.058519 -0.110880 -0.355809 -0.258176 -0.000098 -0.225227 -0.160293
                                -0.000061 -0.006435  0.014490  0.000006  0.009543  0.000001 -0.029600 -0.049585 -0.052392 -0.078896
                                -0.146423 -0.171777 -0.134981 -0.202407

  14.1   2    -0.2411  -10.5450 -0.000006  0.000014  0.000013 -0.000063  0.000102 -0.348273 -0.000056  0.000079 -0.279513 -0.000001
                                 0.000001 -0.003271  0.000000  0.000461 -0.000001  0.000001  0.000004  0.000020  0.000055 -0.204545
                                -0.000011  0.000043 -0.170585  0.000000 -0.000005  0.012904  0.000001  0.003131  0.000000 -0.000001
                                 0.000015 -0.000010 -0.000025  0.083703 -0.000010 -0.000047  0.119902  0.000007 -0.000008  0.025226
                                 0.000000  0.010067  0.000000  0.000000  0.000003 -0.000017 -0.000129  0.460116 -0.000013 -0.000091
                                 0.322586 -0.000003  0.000005 -0.018838  0.000000 -0.001441 -0.000005 -0.000003 -0.000002  0.000003
                                 0.000007  0.000014  0.000004  0.000011

  15.1   2    -0.1627  -11.1572  0.006438 -0.025685  0.049470 -0.010984 -0.012441  0.000019  0.078806  0.026708  0.000018 -0.002022
                                 0.000470 -0.000001  0.000697  0.000001  0.034195 -0.061544 -0.459254 -0.060721 -0.071228 -0.000036
                                 0.057708 -0.117729 -0.000051 -0.000320 -0.007435 -0.000003 -0.010108  0.000002 -0.019050  0.001678
                                 0.358298 -0.080135  0.192182  0.000043 -0.218808 -0.053408 -0.000028  0.000092 -0.029839 -0.000008
                                -0.003306  0.000000  0.004223 -0.018375  0.025475  0.205474 -0.576221 -0.000142  0.145333 -0.445392
                                -0.000111  0.002523  0.014387  0.000003 -0.008096  0.000002  0.005440  0.041007 -0.003347  0.034476
                                 0.030794  0.116002  0.120333  0.182259


 **********************************************************************************************************************************
 DATASETS  * FILE   NREC   LENGTH (MB)   RECORD NAMES
              1      21       11.38       701      600      500      702      960      900      950      970     1000     1100   
                                         GEOM    BASINP     VAR     GEOM    ABASIS   SYMINP    ZMAT    AOBASIS   BASIS      S 
                                         1400     1410     1200     1210     1080     1600      129     1650     1300     1700   
                                           T        V       H0       H01     AOSYM     SMH      P2S    MOLCAS    ERIS     OPER   
                                         1800   
                                         GRID   

              2       9        1.27       500      600      700     1000     1800     2100     2140      701      702   
                                          VAR    BASINP    GEOM     BASIS    GRID      RHF     MCSCF    GEOM     GEOM   

 PROGRAMS   *        TOTAL    KS-SCF       INT   RESTART
 CPU TIMES  *         3.66      2.67      0.94      0.00
 REAL TIME  *         4.48 SEC
 DISK USED  *        39.09 MB
 **********************************************************************************************************************************

1PROGRAM * MULTI (Direct Multiconfiguration SCF)       Authors: P.J. Knowles, H.-J. Werner (1984)     S.T. Elbert (1988)


 Number of closed-shell orbitals: 12 ( 12 )
 Number of active  orbitals:       5 (  5 )
 Number of external orbitals:     47 ( 47 )

 State symmetry 1

 Number of electrons:  6    Spin symmetry=Singlet     Space symmetry=1
 Number of states:     3
 Number of CSFs:      50

 Iteration controls:
             1  2  3  4  5  6  7  8  9 10 11 12 13 14 15 16 17 18 19 20 21 22 23 24 25 26 27 28 29 30 31 32 33 34 35 36 37 38 39
 DIAGCI      T  F  F  F  F  F  F  F  F  F  F  F  F  F  F  F  F  F  F  F  F  F  F  F  F  F  F  F  F  F  F  F  F  F  F  F  F  F  F
 WERNER      T  T  T  T  T  T  T  T  T  T  T  T  T  T  T  T  T  T  T  T  T  T  T  T  T  T  T  T  T  T  T  T  T  T  T  T  T  T  T
 INTERNAL    F  T  T  T  T  T  T  T  T  T  T  T  T  T  T  T  T  T  T  T  T  T  T  T  T  T  T  T  T  T  T  T  T  T  T  T  T  T  T

 Storage for configuration lists    141, coupling coefficients    239, address lists   1101

 Molecular orbitals read from record     2140.2  Type=MCSCF/NATURAL (state averaged)

 Wavefunction dump at record             2140.2

 Convergence thresholds  0.10E-01 (gradient)  0.10E-05 (energy)  0.10E-02 (step length)

 Weight factors for state symmetry  1:    0.33333   0.33333   0.33333

 Eigenvalues of redundancy matrix
   1- 10    0.000000    0.000000    0.000000    0.000000    0.000000    0.000000    0.000000    0.000000    0.000000    0.000000

 Number of orbital rotations      859     (  60 Core/Active  564 Core/Virtual   0 Active/Active  235 Active/Virtual)
 Total number of variables   =   1009


 ITER. MIC  NCI  NEG     ENERGY(VAR)     ENERGY(PROJ)   ENERGY CHANGE     GRAD(0)  GRAD(ORB)   GRAD(CI)     STEP       TIME

   1   32    8    0    -190.52193717    -190.52193717    0.00000000    0.00001049 0.00000088 0.00001616  0.29D-06      0.86

 ** WVFN ****  CONVERGENCE REACHED, FINAL GRADIENT:  0.70D-06

 SOLVING CP-MCSCF EQUATIONS FOR STATE  2.1

 REQUESTED ACCURACY OF CP-SOLUTION:    0.10D-06

 CONVERGENCE REACHED IN  40 ITERATIONS ( 0 RESTARTS, 40 EXPANSION VECTORS), ACCURACY=  0.32D-07

 SA-Gradient information saved on record      5100.1

 SOLVING CP-MCSCF EQUATIONS FOR STATE  1.1

 REQUESTED ACCURACY OF CP-SOLUTION:    0.10D-06

 CONVERGENCE REACHED IN  39 ITERATIONS ( 0 RESTARTS, 39 EXPANSION VECTORS), ACCURACY=  0.94D-07

 SA-Gradient information saved on record      5101.1


 First order charge density matrix for state 1.1 saved on record  2140.2 (density set 1)
 First order charge density matrix for state 2.1 saved on record  2140.2 (density set 2)
 First order charge density matrix for state 3.1 saved on record  2140.2 (density set 3)

 Results for state 1.1
 ---------------------

 !MC STATE 1.1 ENERGY                -190.57904167
 Nuclear energy                       101.86913140
 Kinetic energy                       191.13564581
 One electron energy                 -460.32587283
 Two electron energy                  167.87769976
 Virial ratio                           1.99708791

 !MC STATE 1.1 DIPOLE MOMENTS:         -1.02846857    -0.41964690    -0.00006471 a.u.     -2.613935   -1.066566   -0.000164 Debye

 Results for state 2.1
 ---------------------

 !MC STATE 2.1 ENERGY                -190.57877720
 Nuclear energy                       101.86913140
 Kinetic energy                       191.11754518
 One electron energy                 -460.32750562
 Two electron energy                  167.87959702
 Virial ratio                           1.99718096

 !MC STATE 2.1 DIPOLE MOMENTS:         -0.67626361    -0.12294964     0.00003898 a.u.     -1.718778   -0.312486    0.000099 Debye

 Results for state 3.1
 ---------------------

 !MC STATE 3.1 ENERGY                -190.40799264
 Nuclear energy                       101.86913140
 Kinetic energy                       191.29896453
 One electron energy                 -460.06726051
 Two electron energy                  167.79013648
 Virial ratio                           1.99534252

 !MC STATE 3.1 DIPOLE MOMENTS:         -0.98000539    -0.19563592     0.00002112 a.u.     -2.490762   -0.497224    0.000054 Debye

 State-averaged charge density matrix saved on record  2140.2 (density set 4)

 !MC EXPECT. VALUE <1.1|DMX|1.1>       -1.02846857  A.U.             -2.61393514  DEBYE
 !MC MATR. ELEMENT <2.1|DMX|1.1>       -0.00018340  A.U.             -0.00046613  DEBYE
 !MC EXPECT. VALUE <2.1|DMX|2.1>       -0.67626361  A.U.             -1.71877808  DEBYE
 !MC MATR. ELEMENT <3.1|DMX|1.1>        0.00017696  A.U.              0.00044976  DEBYE
 !MC MATR. ELEMENT <3.1|DMX|2.1>       -0.13327048  A.U.             -0.33871759  DEBYE
 !MC EXPECT. VALUE <3.1|DMX|3.1>       -0.98000539  A.U.             -2.49076211  DEBYE

 !MC EXPECT. VALUE <1.1|DMY|1.1>       -0.41964690  A.U.             -1.06656616  DEBYE
 !MC MATR. ELEMENT <2.1|DMY|1.1>       -0.00016253  A.U.             -0.00041309  DEBYE
 !MC EXPECT. VALUE <2.1|DMY|2.1>       -0.12294964  A.U.             -0.31248635  DEBYE
 !MC MATR. ELEMENT <3.1|DMY|1.1>        0.00003592  A.U.              0.00009128  DEBYE
 !MC MATR. ELEMENT <3.1|DMY|2.1>       -0.06345954  A.U.             -0.16128749  DEBYE
 !MC EXPECT. VALUE <3.1|DMY|3.1>       -0.19563592  A.U.             -0.49722434  DEBYE

 !MC EXPECT. VALUE <1.1|DMZ|1.1>       -0.00006471  A.U.             -0.00016447  DEBYE
 !MC MATR. ELEMENT <2.1|DMZ|1.1>       -0.00304943  A.U.             -0.00775036  DEBYE
 !MC EXPECT. VALUE <2.1|DMZ|2.1>        0.00003898  A.U.              0.00009906  DEBYE
 !MC MATR. ELEMENT <3.1|DMZ|1.1>        0.10823908  A.U.              0.27509828  DEBYE
 !MC MATR. ELEMENT <3.1|DMZ|2.1>        0.00003753  A.U.              0.00009540  DEBYE
 !MC EXPECT. VALUE <3.1|DMZ|3.1>        0.00002112  A.U.              0.00005368  DEBYE


 NATURAL ORBITALS                                        
 ----------------                                        

   Orb     Occ        Energy       Coefficients

                                   1 1s      1 1s      1 1s      1 2px     1 2py     1 2pz     1 2px     1 2py     1 2pz     1 3d0  
                                   1 3d2-    1 3d1+    1 3d2+    1 3d1-    2 1s      2 1s      2 1s      2 2px     2 2py     2 2pz  
                                   2 2px     2 2py     2 2pz     2 3d0     2 3d2-    2 3d1+    2 3d2+    2 3d1-    3 1s      3 1s   
                                   3 1s      3 2px     3 2py     3 2pz     3 2px     3 2py     3 2pz     3 3d0     3 3d2-    3 3d1+ 
                                   3 3d2+    3 3d1-    4 1s      4 1s      4 1s      4 2px     4 2py     4 2pz     4 2px     4 2py  
                                   4 2pz     4 3d0     4 3d2-    4 3d1+    4 3d2+    4 3d1-    5 1s      5 1s      6 1s      6 1s   
                                   7 1s      7 1s      8 1s      8 1s   

   1.1  2.00000   -20.583904    -0.000016 -0.000185 -0.000825 -0.000155 -0.000131  0.000000  0.000213  0.000513  0.000000 -0.000058
                                -0.000042  0.000000  0.000044  0.000000  0.000009 -0.000061  0.000988 -0.000051 -0.000100  0.000000
                                -0.001942  0.001734  0.000000 -0.000025 -0.000137  0.000000 -0.000212  0.000000 -0.000008  0.000015
                                 0.004146  0.000390 -0.000029  0.000000  0.006059  0.000848  0.000001 -0.000224 -0.000102  0.000000
                                -0.000053  0.000000  0.995912  0.022521 -0.011709 -0.001267 -0.000186  0.000000  0.004015  0.000516
                                 0.000000  0.000260 -0.000186  0.000000 -0.000497  0.000000  0.000078  0.000514 -0.000145  0.000186
                                 0.000123  0.001088 -0.000277  0.000011

   2.1  2.00000   -11.300081     0.000108 -0.000276  0.000820 -0.000122 -0.000078  0.000000  0.000942  0.000277  0.000000 -0.000101
                                 0.000092  0.000000  0.000039  0.000000  0.037526 -0.000655  0.009697 -0.000203 -0.000416  0.000000
                                 0.003132  0.004003  0.000001 -0.000066  0.000441  0.000000 -0.000209  0.000000  0.995210  0.024477
                                -0.015328  0.000833 -0.000863  0.000000  0.003003  0.004835  0.000002 -0.000950  0.001216  0.000000
                                 0.000034  0.000001 -0.000032  0.000754 -0.001760  0.000127  0.000088  0.000000  0.002035 -0.000570
                                 0.000000  0.000664  0.000033  0.000000 -0.000969  0.000000 -0.000023  0.000501 -0.000130  0.000262
                                -0.000025  0.000357 -0.000517  0.000973

   3.1  2.00000   -11.246158     0.995908  0.024284 -0.013178  0.000211 -0.000026  0.000000 -0.000744 -0.000073  0.000000 -0.000400
                                 0.000046  0.000000 -0.000203  0.000000  0.021464  0.000099  0.001410  0.000147  0.000011  0.000000
                                -0.001907 -0.000853  0.000000  0.000272 -0.000124  0.000000 -0.000476  0.000000 -0.001014 -0.000267
                                 0.001355  0.000133 -0.000053  0.000000 -0.000739 -0.000924  0.000000 -0.000098  0.000001  0.000000
                                -0.000124  0.000000 -0.000002 -0.000143  0.000496 -0.000070 -0.000021  0.000000 -0.000272  0.000006
                                 0.000000 -0.000020 -0.000005  0.000000  0.000028  0.000000 -0.000480  0.002814 -0.000376  0.002726
                                -0.000202  0.000072  0.000004  0.000123

   4.1  2.00000   -11.233231    -0.021602 -0.000952  0.003813 -0.000110 -0.000028  0.000000  0.001319  0.001049  0.000000  0.000280
                                 0.000015  0.000000 -0.000441  0.000000  0.994982  0.025932 -0.018957  0.000481  0.001107  0.000000
                                -0.000285 -0.002838 -0.000001 -0.000770  0.000837  0.000000 -0.000375  0.000001 -0.039388 -0.002723
                                 0.009519  0.000250  0.000618  0.000000 -0.002210 -0.002811 -0.000001  0.000083  0.000275  0.000000
                                -0.000110  0.000000  0.000001 -0.000112  0.000118 -0.000004 -0.000032  0.000000 -0.000071  0.000073
                                 0.000000 -0.000094  0.000161  0.000000  0.000040  0.000000 -0.000107  0.000203 -0.000227 -0.000592
                                -0.000257  0.002126 -0.000163 -0.000046

   5.1  2.00000    -1.316421    -0.005054  0.011030  0.013463  0.005861  0.002647  0.000002 -0.000972 -0.004257  0.000000 -0.000977
                                 0.000746  0.000000  0.000909  0.000000 -0.042112  0.074848  0.053227  0.037320  0.037053  0.000015
                                 0.030189 -0.007073  0.000000 -0.002729  0.004639  0.000002  0.000694  0.000001 -0.098685  0.183112
                                 0.039341  0.076636 -0.005794  0.000004 -0.040745  0.021704  0.000005 -0.014517  0.009392  0.000005
                                 0.011377  0.000004 -0.202118  0.448279  0.489242 -0.067086 -0.012651 -0.000009 -0.054305 -0.011978
                                -0.000008 -0.008099  0.003600  0.000003  0.011215  0.000001  0.001895 -0.003601  0.003730 -0.000768
                                 0.016706 -0.005778  0.043769  0.004230

   6.1  2.00000    -1.103245    -0.071249  0.137889  0.102116  0.054431  0.012905  0.000007  0.009200  0.019437  0.000008 -0.010895
                                 0.003422 -0.000001  0.006295  0.000004 -0.180517  0.320913  0.253971  0.050241  0.118975  0.000045
                                 0.011072 -0.008974  0.000000 -0.016910  0.008502  0.000002 -0.006876  0.000011 -0.117952  0.218440
                                 0.112220 -0.157310 -0.175987 -0.000059 -0.002454  0.023739  0.000006 -0.004227  0.013131  0.000003
                                -0.017145  0.000008  0.073826 -0.168809 -0.198250 -0.001451 -0.007446 -0.000002  0.006385 -0.005487
                                -0.000001 -0.001231  0.003863  0.000001  0.001410  0.000000  0.037328  0.013835  0.039584 -0.002128
                                 0.077248 -0.003323  0.011653 -0.014162

   7.1  2.00000    -0.920415    -0.180989  0.358952  0.321625 -0.038866 -0.023967  0.000023 -0.014997 -0.010717  0.000012 -0.019961
                                -0.000976 -0.000005 -0.009758  0.000012  0.024655 -0.032621 -0.060353 -0.185436 -0.129026 -0.000033
                                -0.064585 -0.023614 -0.000007 -0.002384 -0.005645 -0.000004  0.015905 -0.000004  0.078299 -0.148281
                                -0.066728  0.072624  0.106201  0.000037  0.006763 -0.031817 -0.000011  0.004025 -0.005940 -0.000002
                                 0.013406 -0.000007 -0.031566  0.074331  0.091398  0.008959  0.006039 -0.000002  0.000319  0.005821
                                -0.000002  0.001791 -0.003344 -0.000001 -0.002228  0.000000  0.164189  0.048874  0.143295  0.047048
                                -0.002220  0.008816 -0.015754  0.006995

   8.1  2.00000    -0.739075    -0.026474  0.051925  0.074934 -0.113307  0.101573  0.000049 -0.033086  0.037691  0.000020 -0.003092
                                -0.002939 -0.000002 -0.009312  0.000007  0.075133 -0.151821 -0.150337 -0.054023  0.262879  0.000075
                                 0.009231  0.098647  0.000028  0.012705  0.009008  0.000002 -0.000459 -0.000005 -0.095969  0.190979
                                 0.182001 -0.093345  0.156082  0.000042 -0.036103  0.115784  0.000035 -0.009697  0.009710  0.000003
                                -0.010321  0.000009  0.037268 -0.088933 -0.130777 -0.057347  0.044503  0.000011 -0.022002  0.009599
                                 0.000001 -0.003509 -0.003593  0.000000  0.005364  0.000000  0.004121  0.001838  0.104652  0.057897
                                -0.202137 -0.107856  0.155539  0.085377

   9.1  2.00000    -0.646660     0.015663 -0.031873 -0.025867  0.141475 -0.191844 -0.000076  0.069880 -0.086802 -0.000037  0.002016
                                 0.011880  0.000005  0.007839 -0.000008 -0.003390  0.016946  0.046532 -0.120646 -0.225985 -0.000065
                                 0.007621 -0.096782 -0.000025 -0.000301 -0.015642 -0.000005 -0.003673  0.000000 -0.024155  0.055221
                                 0.145399  0.040767  0.338961  0.000108 -0.046916  0.148249  0.000044 -0.007219 -0.002687 -0.000001
                                -0.016070  0.000008  0.039612 -0.095131 -0.143332 -0.083039  0.074476  0.000021 -0.033896  0.028155
                                 0.000009 -0.003688 -0.010468 -0.000003  0.005620  0.000000  0.050605  0.032385 -0.155034 -0.088393
                                 0.099777  0.062747  0.212108  0.157764

  10.1  2.00000    -0.622675    -0.005868  0.013011  0.015484 -0.255603 -0.347211 -0.000062 -0.101833 -0.161263 -0.000029 -0.001880
                                 0.020870  0.000006 -0.022270 -0.000001  0.032709 -0.072576 -0.066617  0.254659  0.086598  0.000027
                                 0.116422  0.046099  0.000015  0.003584  0.013320  0.000005 -0.010017  0.000001 -0.044197  0.086987
                                 0.019516 -0.002813 -0.118552 -0.000038  0.002690  0.001722  0.000001 -0.000871 -0.000224  0.000000
                                -0.009705  0.000004  0.015335 -0.037582 -0.048916 -0.012193 -0.020441 -0.000006 -0.004144 -0.010333
                                -0.000003 -0.001812  0.004638  0.000002  0.002057  0.000001  0.268895  0.175785 -0.083958 -0.049557
                                -0.011328 -0.004026 -0.014185 -0.018350

  11.1  2.00000    -0.555561    -0.009613  0.020495  0.010305  0.266857 -0.203846 -0.000108  0.116341 -0.110303 -0.000054  0.001068
                                 0.025767  0.000008  0.011717 -0.000010 -0.017389  0.032998  0.033401 -0.261560  0.232972  0.000029
                                -0.169187  0.144720  0.000018  0.001119  0.023930  0.000004  0.011373 -0.000005  0.008726 -0.022222
                                -0.060285 -0.102974 -0.086653 -0.000069  0.027097 -0.055220 -0.000038  0.003830  0.009185  0.000004
                                 0.020531 -0.000005 -0.031421  0.076806  0.107338  0.059050 -0.016763 -0.000018  0.025097 -0.007638
                                -0.000010  0.003444  0.001953  0.000001 -0.004142  0.000000  0.058849  0.034913 -0.203594 -0.163223
                                -0.204114 -0.152350 -0.084682 -0.083588

  12.1  2.00000    -0.514179     0.000002 -0.000004 -0.000009  0.000045 -0.000042  0.081093  0.000019 -0.000025  0.038414  0.000001
                                 0.000000  0.010366  0.000003  0.002149  0.000003 -0.000007  0.000002 -0.000033 -0.000085  0.376740
                                -0.000019 -0.000048  0.234684  0.000016 -0.000002  0.013669  0.000009  0.025767 -0.000001  0.000005
                                -0.000016 -0.000011 -0.000140  0.401277  0.000001 -0.000072  0.221965 -0.000014  0.000004 -0.008487
                                -0.000004 -0.025822  0.000000  0.000000 -0.000003 -0.000024 -0.000055  0.145565 -0.000016 -0.000030
                                 0.075217 -0.000003  0.000006 -0.014317  0.000001 -0.002542  0.000002 -0.000002 -0.000024 -0.000020
                                -0.000023 -0.000021 -0.000014 -0.000015

  13.1  1.73976    -0.394392     0.000010 -0.000022 -0.000035  0.000005 -0.000049  0.155010  0.000012 -0.000034  0.128685  0.000000
                                -0.000001  0.004859  0.000000  0.000644 -0.000004  0.000006  0.000011  0.000012 -0.000045  0.166488
                                 0.000012 -0.000043  0.140516  0.000003 -0.000001 -0.003532 -0.000004  0.004056  0.000008 -0.000019
                                -0.000005 -0.000078  0.000004  0.019076 -0.000013  0.000024 -0.006633 -0.000008  0.000010 -0.030704
                                -0.000012 -0.014349 -0.000009  0.000023  0.000031  0.000152  0.000230 -0.599227  0.000106  0.000167
                                -0.450129  0.000006 -0.000010  0.021907 -0.000006  0.001172  0.000005  0.000011  0.000001  0.000005
                                 0.000014  0.000013  0.000019  0.000031

  14.1  1.66580    -0.375035     0.000641  0.004193 -0.051596 -0.010845  0.003693  0.000001 -0.041437 -0.007397  0.000002  0.001038
                                -0.000153  0.000000 -0.001451  0.000000 -0.023642  0.041414  0.134938  0.050495  0.042152  0.000011
                                -0.051424  0.039267  0.000011 -0.000584  0.004245  0.000001  0.004753 -0.000001  0.011505 -0.008202
                                -0.140320  0.019156 -0.114920 -0.000033  0.072029 -0.064170 -0.000017  0.000249  0.028255  0.000009
                                 0.004133  0.000001 -0.008713  0.023131  0.031315 -0.166393  0.634783  0.000196 -0.131722  0.484140
                                 0.000149 -0.001356 -0.017704 -0.000005  0.006153 -0.000002  0.001269 -0.004450  0.005022 -0.005227
                                -0.000269 -0.028990 -0.084466 -0.108872

  15.1  1.65311    -0.481062    -0.015984  0.035087  0.052294  0.082003  0.017170 -0.000004  0.036641 -0.003236 -0.000006  0.000052
                                -0.000743  0.000001  0.002520  0.000000  0.016484 -0.024081 -0.052699 -0.066786 -0.010972  0.000021
                                -0.062393  0.002441  0.000026  0.001352  0.009734  0.000003  0.020280 -0.000006 -0.032954  0.086448
                                 0.016699  0.326316 -0.055516 -0.000008  0.069866 -0.090796 -0.000032 -0.010052  0.001108 -0.000005
                                 0.036994 -0.000008  0.042883 -0.105606 -0.145189 -0.507395 -0.148282 -0.000236 -0.341388 -0.082622
                                -0.000164 -0.012406  0.012917  0.000013  0.022252  0.000001 -0.019773 -0.033748 -0.007079 -0.021772
                                -0.058167 -0.073368 -0.085322 -0.139155

  16.1  0.92641    -0.101931     0.000016 -0.000034 -0.000080  0.000082 -0.000161  0.558989  0.000075 -0.000146  0.516608 -0.000004
                                 0.000001 -0.003215  0.000000 -0.002484 -0.000003  0.000011 -0.000010 -0.000028  0.000021 -0.073465
                                -0.000022  0.000021 -0.085241 -0.000007  0.000009 -0.026813 -0.000004 -0.014977  0.000002 -0.000004
                                 0.000006  0.000023  0.000060 -0.185422  0.000002  0.000032 -0.146186  0.000006 -0.000003  0.010416
                                 0.000008  0.010660  0.000001 -0.000002  0.000005 -0.000052 -0.000077  0.202650 -0.000036 -0.000056
                                 0.159444 -0.000001  0.000002 -0.003246  0.000002  0.000532  0.000014  0.000021  0.000015  0.000014
                                -0.000008 -0.000008 -0.000010 -0.000015

  17.1  0.01492     0.712290     0.020016 -0.047770 -0.120989 -0.089713 -0.020746 -0.000002 -0.057243  0.004799  0.000002 -0.000745
                                 0.001288  0.000001 -0.003519  0.000002 -0.025231  0.044214  0.105301  0.042764  0.040106  0.000000
                                -0.018813  0.044596 -0.000002 -0.001464 -0.012936 -0.000004 -0.028698  0.000009  0.089649 -0.317628
                                -0.249280 -0.612340  0.026152  0.000003 -0.098631  0.042681  0.000024  0.010319  0.020660  0.000012
                                -0.027516  0.000003 -0.041407  0.025251  0.367314 -0.790045 -0.215655 -0.000156  0.119517  0.037419
                                 0.000047  0.057756 -0.053286 -0.000037 -0.074658 -0.000015  0.019275  0.042617  0.000892  0.019446
                                 0.063724  0.109155 -0.023079  0.104455


 Natural orbital dump (state averaged) at molpro section   2140.2    (Orbital set 2)


 CI vector
 ---------

 22+-0     -0.0001574   0.0820768   0.9783024
 2+2-0      0.0005392   0.9714837  -0.0795240
 +22-0     -0.7587075   0.0004086  -0.0001472
 22200     -0.5932623   0.0003175  -0.0001385
 02220      0.2456446  -0.0001338   0.0000429
 +-220      0.0001091   0.1965530  -0.0230145
 +2-20     -0.0000283   0.0126246   0.1832336
 2+0-2     -0.0000521  -0.0937795   0.0066387
 +20-2      0.0747228  -0.0000414   0.0000011
 22002      0.0543535  -0.0000295   0.0000059

 TOTAL ENERGIES                      -190.57904167  -190.57877720  -190.40799264



 **********************************************************************************************************************************
 DATASETS  * FILE   NREC   LENGTH (MB)   RECORD NAMES
              1      24       19.05       701      600      500      702      960      900      950      970     1000     1100   
                                         GEOM    BASINP     VAR     GEOM    ABASIS   SYMINP    ZMAT    AOBASIS   BASIS      S 
                                         1400     1410     1200     1210     1080     1600      129     1650     1300     1700   
                                           T        V       H0       H01     AOSYM     SMH      P2S    MOLCAS    ERIS     OPER   
                                         1800     1380     5100     5101   
                                         GRID     JKOP    CPSAMC   CPSAMC    

              2       9        1.27       500      600      700     1000     1800     2100     2140      701      702   
                                          VAR    BASINP    GEOM     BASIS    GRID      RHF     MCSCF    GEOM     GEOM   

 PROGRAMS   *        TOTAL     MULTI    KS-SCF       INT   RESTART
 CPU TIMES  *         6.79      3.13      2.67      0.94      0.00
 REAL TIME  *         8.42 SEC
 DISK USED  *        49.88 MB
 **********************************************************************************************************************************

1PROGRAM * FORCE (Gradient of the energy)

 SA-MCSCF information from    5100.1
 Orbitals from record         2140.2

 Number of closed-shell orbitals: 12 ( 12 )
 Number of active orbitals:        5 (  5 )
 Number of occupied orbitals:     17 ( 17 )

 Number of electrons=30     Singlet     Space symmetry=1      Wavefunction type: SA-MCSCF


 End of calculation of the energy gradient  ,IREST=   0


 SA-MC GRADIENT FOR STATE 2.1

 Atom          dE/dx               dE/dy               dE/dz

   1        -0.074456590        -0.043077788         0.000003332
   2         0.243026216         0.324727787         0.000094453
   3        -0.250555662        -0.396733400        -0.000130472
   4        -0.009460113         0.034346159         0.000014383
   5         0.019098558         0.042154768         0.000007075
   6         0.018526605        -0.015455211        -0.000007767
   7        -0.004211317        -0.009849451        -0.000001285
   8         0.058032303         0.063887136         0.000020281



 **********************************************************************************************************************************
 DATASETS  * FILE   NREC   LENGTH (MB)   RECORD NAMES
              1      24       19.05       701      600      500      702      960      900      950      970     1000     1100   
                                         GEOM    BASINP     VAR     GEOM    ABASIS   SYMINP    ZMAT    AOBASIS   BASIS      S 
                                         1400     1410     1200     1210     1080     1600      129     1650     1300     1700   
                                           T        V       H0       H01     AOSYM     SMH      P2S    MOLCAS    ERIS     OPER   
                                         1800     1380     5100     5101   
                                         GRID     JKOP    CPSAMC   CPSAMC    

              2       9        1.27       500      600      700     1000     1800     2100     2140      701      702   
                                          VAR    BASINP    GEOM     BASIS    GRID      RHF     MCSCF    GEOM     GEOM   

 PROGRAMS   *        TOTAL    FORCES     MULTI    KS-SCF       INT   RESTART
 CPU TIMES  *        10.60      3.81      3.13      2.67      0.94      0.00
 REAL TIME  *        12.24 SEC
 DISK USED  *        49.88 MB
 **********************************************************************************************************************************

1PROGRAM * FORCE (Gradient of the energy)

 SA-MCSCF information from    5101.1
 Orbitals from record         2140.2

 Number of closed-shell orbitals: 12 ( 12 )
 Number of active orbitals:        5 (  5 )
 Number of occupied orbitals:     17 ( 17 )

 Number of electrons=30     Singlet     Space symmetry=1      Wavefunction type: SA-MCSCF


 End of calculation of the energy gradient  ,IREST=   0


 SA-MC GRADIENT FOR STATE 1.1

 Atom          dE/dx               dE/dy               dE/dz

   1        -0.113712417        -0.049874788        -0.000002868
   2         0.282817290         0.369270263         0.000100171
   3        -0.273581431        -0.477249113        -0.000148575
   4        -0.008691555         0.068955495         0.000020726
   5         0.018973606         0.043065161         0.000008203
   6         0.017953207        -0.015992223        -0.000004726
   7        -0.004462680        -0.008634253         0.000003725
   8         0.080703980         0.070459459         0.000023346



 **********************************************************************************************************************************
 DATASETS  * FILE   NREC   LENGTH (MB)   RECORD NAMES
              1      24       19.05       701      600      500      702      960      900      950      970     1000     1100   
                                         GEOM    BASINP     VAR     GEOM    ABASIS   SYMINP    ZMAT    AOBASIS   BASIS      S 
                                         1400     1410     1200     1210     1080     1600      129     1650     1300     1700   
                                           T        V       H0       H01     AOSYM     SMH      P2S    MOLCAS    ERIS     OPER   
                                         1800     1380     5100     5101   
                                         GRID     JKOP    CPSAMC   CPSAMC    

              2       9        1.27       500      600      700     1000     1800     2100     2140      701      702   
                                          VAR    BASINP    GEOM     BASIS    GRID      RHF     MCSCF    GEOM     GEOM   

 PROGRAMS   *        TOTAL    FORCES    FORCES     MULTI    KS-SCF       INT   RESTART
 CPU TIMES  *        14.38      3.78      3.81      3.13      2.67      0.94      0.00
 REAL TIME  *        16.03 SEC
 DISK USED  *        49.88 MB
 **********************************************************************************************************************************

        MULTI           MULTI           MULTI           KS-SCF  
   -190.40799264   -190.57877720   -190.57904167   -190.06043844
 **********************************************************************************************************************************
 Variable memory released
