
                                 *****************
                                 * O   R   C   A *
                                 *****************

                                            #,                                       
                                            ###                                      
                                            ####                                     
                                            #####                                    
                                            ######                                   
                                           ########,                                 
                                     ,,################,,,,,                         
                               ,,#################################,,                 
                          ,,##########################################,,             
                       ,#########################################, ''#####,          
                    ,#############################################,,   '####,        
                  ,##################################################,,,,####,       
                ,###########''''           ''''###############################       
              ,#####''   ,,,,##########,,,,          '''####'''          '####       
            ,##' ,,,,###########################,,,                        '##       
           ' ,,###''''                  '''############,,,                           
         ,,##''                                '''############,,,,        ,,,,,,###''
      ,#''                                            '''#######################'''  
     '                                                          ''''####''''         
             ,#######,   #######,   ,#######,      ##                                
            ,#'     '#,  ##    ##  ,#'     '#,    #''#        ,####,   ,####,        
            ##       ##  ##   ,#'  ##            #'  '#       #'       #'  '#        
            ##       ##  #######   ##           ,######,      #####,   #    #        
            '#,     ,#'  ##    ##  '#,     ,#' ,#      #,     #,   #   #,  ,#        
             '#######'   ##     ##  '#######'  #'      '#     '####' # '####'        



                #########################################################
                #                        -***-                          #
                #          Department of theory and spectroscopy        #
                #                                                       #
                #                      Frank Neese                      #
                #                                                       #
                #     Directorship, Architecture, Infrastructure        #
                #                    SHARK, DRIVERS                     #
                #        Core code/Algorithms in most modules           #
                #                                                       #
                #        Max Planck Institute fuer Kohlenforschung      #
                #                Kaiser Wilhelm Platz 1                 #
                #                 D-45470 Muelheim/Ruhr                 #
                #                      Germany                          #
                #                                                       #
                #                  All rights reserved                  #
                #                        -***-                          #
                #########################################################


                         Program Version 6.0.1  -  RELEASE   -


 With contributions from (in alphabetic order):
[Max-Planck-Institut fuer Kohlenforschung]                               
  Daniel Aravena         : Magnetic Suceptibility                        
  Michael Atanasov       : Ab Initio Ligand Field Theory (pilot matlab implementation)
  Alexander A. Auer      : GIAO ZORA, VPT2 properties, NMR spectrum      
  Ute Becker             : All parallelization in ORCA, NUMFREQ, NUMCALC 
  Giovanni Bistoni       : ED, misc. LED, open-shell LED, HFLD           
  Martin Brehm           : Molecular dynamics                            
  Dmytro Bykov           : pre 5.0 version of the SCF Hessian            
  Marcos Casanova-Páez   : Triplet and SCS-CIS(D). UHF-(DLPNO)-IP/EA/STEOM-CCSD. UHF-CVS-IP/STEOM-CCSD   
  Vijay G. Chilkuri      : MRCI spin determinant printing, contributions to CSF-ICE 
  Pauline Colinet        : FMM embedding                                 
  Dipayan Datta          : RHF DLPNO-CCSD density                        
  Achintya Kumar Dutta   : EOM-CC, STEOM-CC                              
  Nicolas Foglia         : Exact transition moments, OPA infrastructure, MCD improvements    
  Dmitry Ganyushin       : Spin-Orbit,Spin-Spin,Magnetic field MRCI      
  Miquel Garcia-Rates    : C-PCM and meta-GGA Hessian, CCSD/C-PCM, Gaussian charge scheme 
  Tiago L. C. Gouveia    : GS-ROHF, GS-ROCIS                             
  Yang Guo               : DLPNO-NEVPT2, F12-NEVPT2, CIM, IAO-localization        
  Andreas Hansen         : Spin unrestricted coupled pair/coupled cluster methods 
  Ingolf Harden          : AUTO-CI MPn and infrastructure                
  Benjamin Helmich-Paris : MC-RPA, TRAH-(SCF,CASSCF), AVAS, COSX integrals, SCF dyn. polar. 
  Lee Huntington         : MR-EOM, pCC                                   
  Robert Izsak           : Overlap fitted RIJCOSX, COSX-SCS-MP3, EOM     
  Riya Kayal             : Wick's Theorem for AUTO-CI, AUTO-CI UHF-CCSDT 
  Emily Kempfer          : AUTO-CI, RHF CISDT and CCSDT                  
  Christian Kollmar      : KDIIS, OOCD, Brueckner-CCSD(T), CCSD density, CASPT2, CASPT2-K, improved NEVPT2 
  Axel Koslowski         : Symmetry handling                             
  Simone Kossmann        : meta-GGA functionals, TD-DFT gradient, OOMP2, (MP2 Hessian; deprecated post 5.0) 
  Lucas Lang             : DCDCAS                                        
  Marvin Lechner         : AUTO-CI (C++ implementation), FIC-MRCC        
  Spencer Leger          : CASSCF response                               
  Dagmar Lenk            : GEPOL surface, SMD, ORCA-2-JSON               
  Dimitrios Liakos       : Extrapolation schemes; Compound Job, initial MDCI parallelization 
  Dimitrios Manganas     : Further ROCIS development; embedding schemes. LFT, Crystal Embedding 
  Dimitrios Pantazis     : SARC Basis sets                               
  Anastasios Papadopoulos: AUTO-CI, single reference methods and gradients 
  Taras Petrenko         : pre 6.0 DFT Hessian and TD-DFT gradient, (ASA, deprecated), ECA, 1-Electron XAS/XES, NRVS 
  Peter Pinski           : DLPNO-MP2, DLPNO-MP2 Gradient                 
  Christoph Reimann      : Effective Core Potentials                     
  Marius Retegan         : Local ZFS, SOC                                
  Christoph Riplinger    : Optimizer, TS searches, QM/MM, DLPNO-CCSD(T), (RO)-DLPNO pert. Triples 
  Michael Roemelt        : Original ROCIS implementation                 
  Masaaki Saitow         : Open-shell DLPNO-CCSD energy and density      
  Barbara Sandhoefer     : DKH picture change effects                    
  Kantharuban Sivalingam : CASSCF convergence/infrastructure, NEVPT2 and variants, FIC-MRCI 
  Bernardo de Souza      : ESD, SOC TD-DFT                               
  Georgi L. Stoychev     : AutoAux, RI-MP2 NMR, DLPNO-MP2 response, X2C  
  Van Anh Tran           : RI-MP2 g-tensors                              
  Willem Van den Heuvel  : Paramagnetic NMR                              
  Zikuan Wang            : NOTCH, Electric field optimization            
  Frank Wennmohs         : Technical directorship and infrastructure     
  Hang Xu                : AUTO-CI-Response properties                   
                                                                         
[FACCTs GmbH]                                                            
  Markus Bursch, Miquel Garcia-Rates, Christoph Riplinger, Bernardo de Souza, Georgi L. Stoychev 
                                                                 
  APM, Basis sets (HGBS, AHGBS, def-TZVP (Ac-Lr), def2-XVPD (La-Lu)), CI-OPT, improved COSX, DLPNO-Multilevel,           
  DOCKER, DRACO, updates on ESD, GOAT, IRC, LR-CPCM, MBIS, meta-GGA TD-DFT gradient, ML-optimized integration grids, 
  MM, NACMEs, nearIR, NEB, NEB-TS, NL-DFT gradient (VV10), 2- and 3-layer-ONIOM, interface openCOSMO-RS, QMMM,   
  Crystal-QMMM, SF, symmetry and pop. for TD-DFT, r2SCAN hybrids, SOLVATOR                                   
                                                                         
[Other institutions]                                                     
  V. Asgeirsson          : NEB                                           
  Christoph Bannwarth    : sTDA-DFT, sTD-DFT, PBEh-3c, B97-3c, D3        
  Sebastian Ehlert       : rSCAN, r2SCAN, r2SCAN-3c, D4, dhf basis sets  
  Marvin Friede          : D4 for Fr, Ra, Ac-Lr                          
  Lars Goerigk           : TD-DFT with DH, B97 family of functionals     
  Stefan Grimme          : VdW corrections, initial TS optimization, DFT functionals, gCP, sTDA/sTD-DF 
  Waldemar Hujo          : DFT-NL                                        
  H. Jonsson             : NEB                                           
  Holger Kruse           : gCP                                           
  Marcel Mueller         : wB97X-3c, vDZP basis set                      
  Hagen Neugebauer       : wr2SCAN                                       
  Tobias Risthaus        : range-separated hybrid DFT                    
  Lukas Wittmann         : regularized MP2, r2SCAN double-hybrids, wr2SCAN        
                                                                         
We gratefully acknowledge several colleagues who have allowed us to      
interface, adapt or use parts of their codes:                            
  Ed Valeev, F. Pavosevic, A. Kumar             : LibInt (2-el integral package), F12 methods 
  Garnet Chan, S. Sharma, J. Yang, R. Olivares  : DMRG                   
  Ulf Ekstrom                                   : XCFun DFT Library      
  Mihaly Kallay                                 : mrcc  (arbitrary order and MRCC methods)
  Frank Weinhold                                : gennbo (NPA and NBO analysis)           
  Simon Mueller                                 : openCOSMO-RS                            
  Christopher J. Cramer and Donald G. Truhlar   : smd solvation model                     
  S Lehtola, MJT Oliveira, MAL Marques          : LibXC Library                           
  Liviu Ungur et al                             : ANISO software                          


 Your calculation uses the libint2 library for the computation of 2-el integrals
 For citations please refer to: http://libint.valeyev.net

 Your ORCA version has been built with support for libXC version: 6.2.2
 For citations please refer to: https://libxc.gitlab.io

 This ORCA versions uses:
   CBLAS   interface :  Fast vector & matrix operations
   LAPACKE interface :  Fast linear algebra routines
   SCALAPACK package :  Parallel linear algebra routines
   Shared memory     :  Shared parallel matrices
   BLAS/LAPACK       :  OpenBLAS 0.3.27  USE64BITINT DYNAMIC_ARCH NO_AFFINITY SkylakeX SINGLE_THREADED
        Core in use  :  SkylakeX
   Copyright (c) 2011-2014, The OpenBLAS Project


NOTE: MaxCore=2000 MB was set to SCF,MP2,MDCI,CIPSI,MRCI and CIS
      => If you want to overwrite this, your respective input block should be placed after the MaxCore statement


***************************************
The coordinates will be read from file: uracil_s0_s.xyz
***************************************


Your calculation utilizes the atom-pairwise dispersion correction
based on EEQ partial charges (D4)


================================================================================

----- Orbital basis set information -----
Your calculation utilizes the basis: def2-SVP
   F. Weigend and R. Ahlrichs, Phys. Chem. Chem. Phys. 7, 3297 (2005).

----- AuxJ basis set information -----
Your calculation utilizes the auxiliary basis: def2/J
   F. Weigend, Phys. Chem. Chem. Phys. 8, 1057 (2006).

================================================================================
                                        WARNINGS
                       Please study these warnings very carefully!
================================================================================


WARNING: Geometry Optimization
  ===> : Switching off AutoStart
         For restart on a previous wavefunction, please use MOREAD

================================================================================
                                       INPUT FILE
================================================================================
NAME = /dev/shm/3470106/uracil_s0.inp-3470106/uracil_s0.inp
|  1> %pal nprocs 16 end
|  2> %maxcore 2000
|  3> ! pbe0 d4 def2-SVP Opt RIJCOSX Def2/J defgrid3 TightSCF
|  4> 
|  5> %geom
|  6>     MaxIter 200
|  7>     #Convergence tight
|  8> end
|  9> 
| 10> * xyzfile 0 1 uracil_s0_s.xyz
| 11> 
| 12> 
| 13>                          ****END OF INPUT****
================================================================================

                       *****************************
                       * Geometry Optimization Run *
                       *****************************

Geometry optimization settings:
Update method            Update   .... BFGS
Choice of coordinates    CoordSys .... (2022) Redundant Internals
Initial Hessian          InHess   .... Almloef's Model
Max. no of cycles        MaxIter  .... 200

Convergence Tolerances:
Energy Change            TolE     ....  5.0000e-06 Eh
Max. Gradient            TolMAXG  ....  3.0000e-04 Eh/bohr
RMS Gradient             TolRMSG  ....  1.0000e-04 Eh/bohr
Max. Displacement        TolMAXD  ....  4.0000e-03 bohr
RMS Displacement         TolRMSD  ....  2.0000e-03 bohr
Strict Convergence                .... False

------------------------------------------------------------------------------
                        ORCA OPTIMIZATION COORDINATE SETUP
------------------------------------------------------------------------------

The optimization will be done in redundant internal coordinates (2022)
Making redundant internal coordinates   ...  (2022 redundants) done
Evaluating the initial hessian          ...  (Almloef) done
Evaluating the coordinates              ...  done
Calculating the B-matrix                .... done
Calculating the G-matrix                .... done
Diagonalizing the G-matrix              .... done
The first mode is                       ....   24
The number of degrees of freedom        ....   30

    -----------------------------------------------------------------
                    Redundant Internal Coordinates


    -----------------------------------------------------------------
         Definition                    Initial Value    Approx d2E/dq
    -----------------------------------------------------------------
      1. B(N   1,C   0)                  1.3985         0.542376   
      2. B(C   2,N   1)                  1.3898         0.559960   
      3. B(N   3,C   2)                  1.3981         0.543120   
      4. B(C   4,N   3)                  1.3742         0.593039   
      5. B(C   5,C   4)                  1.3679         0.677561   
      6. B(C   5,C   0)                  1.4677         0.469603   
      7. B(O   6,C   2)                  1.2484         0.941564   
      8. B(H   7,C   5)                  1.0826         0.370024   
      9. B(O   8,C   0)                  1.2408         0.967933   
     10. B(H   9,N   1)                  1.0156         0.423951   
     11. B(H  10,N   3)                  1.0146         0.425468   
     12. B(H  11,C   4)                  1.1004         0.346649   
     13. A(N   1,C   0,O   8)          119.6057         0.453219   
     14. A(N   1,C   0,C   5)          116.1613         0.400785   
     15. A(C   5,C   0,O   8)          124.2330         0.444459   
     16. A(C   0,N   1,C   2)          124.3889         0.410785   
     17. A(C   2,N   1,H   9)          117.1159         0.351306   
     18. A(C   0,N   1,H   9)          118.4952         0.349419   
     19. A(N   3,C   2,O   6)          121.1030         0.451062   
     20. A(N   1,C   2,O   6)          122.9910         0.453573   
     21. A(N   1,C   2,N   3)          115.9060         0.410884   
     22. A(C   2,N   3,H  10)          116.5806         0.349710   
     23. A(C   2,N   3,C   4)          123.4217         0.415093   
     24. A(C   4,N   3,H  10)          119.9977         0.354951   
     25. A(N   3,C   4,C   5)          120.3611         0.434677   
     26. A(C   5,C   4,H  11)          121.3692         0.355955   
     27. A(N   3,C   4,H  11)          118.2697         0.345894   
     28. A(C   0,C   5,C   4)          119.7610         0.419612   
     29. A(C   4,C   5,H   7)          122.8795         0.359928   
     30. A(C   0,C   5,H   7)          117.3596         0.338354   
     31. D(H   9,N   1,C   0,C   5)   -179.9624         0.023413   
     32. D(H   9,N   1,C   0,O   8)      0.0388         0.023413   
     33. D(C   2,N   1,C   0,O   8)   -179.9989         0.023413   
     34. D(C   2,N   1,C   0,C   5)     -0.0002         0.023413   
     35. D(O   6,C   2,N   1,C   0)   -179.9511         0.025041   
     36. D(N   3,C   2,N   1,C   0)      0.0587         0.025041   
     37. D(N   3,C   2,N   1,H   9)   -179.9786         0.025041   
     38. D(O   6,C   2,N   1,H   9)      0.0116         0.025041   
     39. D(H  10,N   3,C   2,O   6)     -0.0263         0.023480   
     40. D(H  10,N   3,C   2,N   1)    179.9641         0.023480   
     41. D(C   4,N   3,C   2,O   6)    179.9336         0.023480   
     42. D(C   4,N   3,C   2,N   1)     -0.0760         0.023480   
     43. D(H  11,C   4,N   3,C   2)   -179.9676         0.028292   
     44. D(C   5,C   4,N   3,H  10)    179.9907         0.028292   
     45. D(C   5,C   4,N   3,C   2)      0.0322         0.028292   
     46. D(H  11,C   4,N   3,H  10)     -0.0091         0.028292   
     47. D(H   7,C   5,C   4,H  11)      0.0094         0.032163   
     48. D(C   0,C   5,C   4,H  11)   -179.9683         0.032163   
     49. D(C   0,C   5,C   4,N   3)      0.0319         0.032163   
     50. D(H   7,C   5,C   0,O   8)     -0.0269         0.015017   
     51. D(H   7,C   5,C   0,N   1)    179.9744         0.015017   
     52. D(H   7,C   5,C   4,N   3)   -179.9904         0.032163   
     53. D(C   4,C   5,C   0,O   8)    179.9519         0.015017   
     54. D(C   4,C   5,C   0,N   1)     -0.0468         0.015017   
    -----------------------------------------------------------------

Number of atoms                         .... 12
Number of degrees of freedom            .... 54


         *************************************************************
         *                GEOMETRY OPTIMIZATION CYCLE   1            *
         *************************************************************
---------------------------------
CARTESIAN COORDINATES (ANGSTROEM)
---------------------------------
  C      0.716126    0.993705    0.544611
  N      1.529554    0.096420   -0.154703
  C      1.148624   -1.190211   -0.516755
  N     -0.141601   -1.574302   -0.139161
  C     -1.004144   -0.755388    0.549189
  C     -0.622242    0.509548    0.903198
  O      1.897063   -1.970445   -1.140840
  H     -1.268164    1.188387    1.445399
  O      1.147369    2.123538    0.822461
  H      2.463328    0.394677   -0.420185
  H     -0.430534   -2.511576   -0.398840
  H     -2.001147   -1.145109    0.803947

----------------------------
CARTESIAN COORDINATES (A.U.)
----------------------------
  NO LB      ZA    FRAG     MASS         X           Y           Z
   0 C     6.0000    0    12.011    1.353282    1.877831    1.029166
   1 N     7.0000    0    14.007    2.890437    0.182208   -0.292347
   2 C     6.0000    0    12.011    2.170584   -2.249173   -0.976525
   3 N     7.0000    0    14.007   -0.267587   -2.974999   -0.262975
   4 C     6.0000    0    12.011   -1.897557   -1.427477    1.037818
   5 C     6.0000    0    12.011   -1.175867    0.962906    1.706796
   6 O     8.0000    0    15.999    3.584929   -3.723602   -2.155874
   7 H     1.0000    0     1.008   -2.396483    2.245727    2.731409
   8 O     8.0000    0    15.999    2.168212    4.012905    1.554226
   9 H     1.0000    0     1.008    4.655016    0.745831   -0.794035
  10 H     1.0000    0     1.008   -0.813592   -4.746192   -0.753698
  11 H     1.0000    0     1.008   -3.781620   -2.163942    1.519240

--------------------------------
INTERNAL COORDINATES (ANGSTROEM)
--------------------------------
 C      0   0   0     0.000000000000     0.00000000     0.00000000
 N      1   0   0     1.398508449644     0.00000000     0.00000000
 C      2   1   0     1.389823503458   124.38890634     0.00000000
 N      3   2   1     1.398135459178   115.90599331     0.05871510
 C      4   3   2     1.374199950903   123.42166248   359.92395427
 C      5   4   3     1.367930950630   120.36114008     0.03219678
 O      3   2   1     1.248362126403   122.99099399   180.04888527
 H      6   5   4     1.082599447376   122.87948549   180.00960083
 O      1   2   3     1.240843267539   119.60568776   180.00105171
 H      2   1   3     1.015565112177   118.49517825   180.03776605
 H      4   3   2     1.014593372241   116.58059204   179.96411433
 H      5   4   3     1.100362961273   118.26969927   180.03239110

---------------------------
INTERNAL COORDINATES (A.U.)
---------------------------
 C      0   0   0     0.000000000000     0.00000000     0.00000000
 N      1   0   0     2.642797965801     0.00000000     0.00000000
 C      2   1   0     2.626385796022   124.38890634     0.00000000
 N      3   2   1     2.642093115971   115.90599331     0.05871510
 C      4   3   2     2.596861560456   123.42166248   359.92395427
 C      5   4   3     2.585014866805   120.36114008     0.03219678
 O      3   2   1     2.359062534862   122.99099399   180.04888527
 H      6   5   4     2.045816468276   122.87948549   180.00960083
 O      1   2   3     2.344853950769   119.60568776   180.00105171
 H      2   1   3     1.919139933179   118.49517825   180.03776605
 H      4   3   2     1.917303610828   116.58059204   179.96411433
 H      5   4   3     2.079384644717   118.26969927   180.03239110

---------------------
BASIS SET INFORMATION
---------------------
There are 4 groups of distinct atoms

 Group   1 Type C   : 7s4p1d contracted to 3s2p1d pattern {511/31/1}
 Group   2 Type N   : 7s4p1d contracted to 3s2p1d pattern {511/31/1}
 Group   3 Type O   : 7s4p1d contracted to 3s2p1d pattern {511/31/1}
 Group   4 Type H   : 4s1p contracted to 2s1p pattern {31/1}

Atom   0C    basis set group =>   1
Atom   1N    basis set group =>   2
Atom   2C    basis set group =>   1
Atom   3N    basis set group =>   2
Atom   4C    basis set group =>   1
Atom   5C    basis set group =>   1
Atom   6O    basis set group =>   3
Atom   7H    basis set group =>   4
Atom   8O    basis set group =>   3
Atom   9H    basis set group =>   4
Atom  10H    basis set group =>   4
Atom  11H    basis set group =>   4
---------------------------------
AUXILIARY/J BASIS SET INFORMATION
---------------------------------
There are 4 groups of distinct atoms

 Group   1 Type C   : 12s5p4d2f1g contracted to 6s4p3d1f1g pattern {711111/2111/211/2/1}
 Group   2 Type N   : 12s5p4d2f1g contracted to 6s4p3d1f1g pattern {711111/2111/211/2/1}
 Group   3 Type O   : 12s5p4d2f1g contracted to 6s4p3d1f1g pattern {711111/2111/211/2/1}
 Group   4 Type H   : 5s2p1d contracted to 3s1p1d pattern {311/2/1}

Atom   0C    basis set group =>   1
Atom   1N    basis set group =>   2
Atom   2C    basis set group =>   1
Atom   3N    basis set group =>   2
Atom   4C    basis set group =>   1
Atom   5C    basis set group =>   1
Atom   6O    basis set group =>   3
Atom   7H    basis set group =>   4
Atom   8O    basis set group =>   3
Atom   9H    basis set group =>   4
Atom  10H    basis set group =>   4
Atom  11H    basis set group =>   4


           ************************************************************
           *        Program running with 16 parallel MPI-processes    *
           *              working on a common directory               *
           ************************************************************
------------------------------------------------------------------------------
                             ORCA STARTUP CALCULATIONS
                           -- RI-GTO INTEGRALS CHOSEN --
------------------------------------------------------------------------------
------------------------------------------------------------------------------
                   ___                                                        
                  /   \      - P O W E R E D   B Y -                         
                 /     \                                                     
                 |  |  |   _    _      __       _____    __    __             
                 |  |  |  | |  | |    /  \     |  _  \  |  |  /  |          
                  \  \/   | |  | |   /    \    | | | |  |  | /  /          
                 / \  \   | |__| |  /  /\  \   | |_| |  |  |/  /          
                |  |  |   |  __  | /  /__\  \  |    /   |      \           
                |  |  |   | |  | | |   __   |  |    \   |  |\   \          
                \     /   | |  | | |  |  |  |  | |\  \  |  | \   \       
                 \___/    |_|  |_| |__|  |__|  |_| \__\ |__|  \__/        
                                                                              
                      - O R C A' S   B I G   F R I E N D -                    
                                      &                                       
                       - I N T E G R A L  F E E D E R -                       
                                                                              
 v1 FN, 2020, v2 2021, v3 2022-2024                                           
------------------------------------------------------------------------------


----------------------
SHARK INTEGRAL PACKAGE
----------------------

Number of atoms                             ...     12
Number of basis functions                   ...    132
Number of shells                            ...     60
Maximum angular momentum                    ...      2
Integral batch strategy                     ... SHARK/LIBINT Hybrid
RI-J (if used) integral strategy            ... SPLIT-RIJ (Revised 2003 algorithm where possible)
Printlevel                                  ...      1
Contraction scheme used                     ... SEGMENTED contraction
Prescreening option                         ... SCHWARTZ
   Thresh                                   ... 2.500e-11
   Tcut                                     ... 2.500e-12
   Tpresel                                  ... 2.500e-12 
Coulomb Range Separation                    ... NOT USED
Exchange Range Separation                   ... NOT USED
Multipole approximations                    ... NOT USED
Finite Nucleus Model                        ... NOT USED
CABS basis                                  ... NOT available
Auxiliary Coulomb fitting basis             ... AVAILABLE
   # of basis functions in Aux-J            ...    436
   # of shells in Aux-J                     ...    140
   Maximum angular momentum in Aux-J        ...      4
Auxiliary J/K fitting basis                 ... NOT available
Auxiliary Correlation fitting basis         ... NOT available
Auxiliary 'external' fitting basis          ... NOT available

Checking pre-screening integrals            ... done (  0.0 sec) Dimension = 60
Check shell pair data                       ... done (  0.0 sec)
Shell pair information
Shell pair cut-off parameter TPreSel        ...   2.5e-12
Total number of shell pairs                 ...      1830
Shell pairs after pre-screening             ...      1736
Total number of primitive shell pairs       ...      6902
Primitive shell pairs kept                  ...      4888
          la=0 lb=0:    493 shell pairs
          la=1 lb=0:    612 shell pairs
          la=1 lb=1:    204 shell pairs
          la=2 lb=0:    238 shell pairs
          la=2 lb=1:    154 shell pairs
          la=2 lb=2:     35 shell pairs

Calculating one electron integrals          ... done (  0.0 sec)
Calculating RI/J V-Matrix + Cholesky decomp.... done (  0.0 sec)
Calculating Nuclear repulsion               ... done (  0.0 sec) ENN=    353.716575481696 Eh

Diagonalization of the overlap matrix:
Smallest eigenvalue                        ... 1.367e-03
Time for diagonalization                   ...    0.017 sec
Threshold for overlap eigenvalues          ... 1.000e-07
Number of eigenvalues below threshold      ... 0
Time for construction of square roots      ...    0.001 sec
Total time needed                          ...    0.018 sec

-------------------
DFT GRID GENERATION
-------------------

General Integration Accuracy     IntAcc      ... 4.959
Radial Grid Type                 RadialGrid  ... OptM3 with GC (2021)
Angular Grid (max. ang.)         AngularGrid ... 6 (Lebedev-590)
Angular grid pruning method      GridPruning ... 4 (adaptive)
Weight generation scheme         WeightScheme... mBecke (2022)
Basis function cutoff            BFCut       ... 1.0000e-11
Integration weight cutoff        WCut        ... 1.0000e-14
Partially contracted basis set               ... off
Rotationally invariant grid construction     ... off
Angular grids for H and He will be reduced by one unit

Total number of grid points                  ...   150114
Total number of batches                      ...     2351
Average number of points per batch           ...       63
Average number of grid points per atom       ...    12510

--------------------
COSX GRID GENERATION
--------------------

GRIDX 1
-------
General Integration Accuracy     IntAcc      ... 4.020
Radial Grid Type                 RadialGrid  ... OptM3 with GC (2021)
Angular Grid (max. ang.)         AngularGrid ... 2 (Lebedev-110)
Angular grid pruning method      GridPruning ... 4 (adaptive)
Weight generation scheme         WeightScheme... mBecke (2022)
Basis function cutoff            BFCut       ... 1.0000e-11
Integration weight cutoff        WCut        ... 1.0000e-14
Partially contracted basis set               ... on
Rotationally invariant grid construction     ... off
Angular grids for H and He will be reduced by one unit

Total number of grid points                  ...    17613
Total number of batches                      ...      145
Average number of points per batch           ...      121
Average number of grid points per atom       ...     1468
UseSFitting                                  ... on

GRIDX 2
-------
General Integration Accuracy     IntAcc      ... 4.338
Radial Grid Type                 RadialGrid  ... OptM3 with GC (2021)
Angular Grid (max. ang.)         AngularGrid ... 3 (Lebedev-194)
Angular grid pruning method      GridPruning ... 4 (adaptive)
Weight generation scheme         WeightScheme... mBecke (2022)
Basis function cutoff            BFCut       ... 1.0000e-11
Integration weight cutoff        WCut        ... 1.0000e-14
Partially contracted basis set               ... on
Rotationally invariant grid construction     ... off
Angular grids for H and He will be reduced by one unit

Total number of grid points                  ...    39019
Total number of batches                      ...      312
Average number of points per batch           ...      125
Average number of grid points per atom       ...     3252
UseSFitting                                  ... on

GRIDX 3
-------
General Integration Accuracy     IntAcc      ... 4.871
Radial Grid Type                 RadialGrid  ... OptM3 with GC (2021)
Angular Grid (max. ang.)         AngularGrid ... 4 (Lebedev-302)
Angular grid pruning method      GridPruning ... 4 (adaptive)
Weight generation scheme         WeightScheme... mBecke (2022)
Basis function cutoff            BFCut       ... 1.0000e-11
Integration weight cutoff        WCut        ... 1.0000e-14
Partially contracted basis set               ... on
Rotationally invariant grid construction     ... off
Angular grids for H and He will be reduced by one unit

Total number of grid points                  ...    72197
Total number of batches                      ...      570
Average number of points per batch           ...      126
Average number of grid points per atom       ...     6016
UseSFitting                                  ... on
Initializing property integral containers    ... done (  0.0 sec)

SHARK setup successfully completed in   2.0 seconds

Maximum memory used throughout the entire STARTUP-calculation: 31.1 MB


           ************************************************************
           *        Program running with 16 parallel MPI-processes    *
           *              working on a common directory               *
           ************************************************************
-------------------------------------------------------------------------------
                                 ORCA GUESS
                   Start orbitals & Density for SCF / CASSCF
-------------------------------------------------------------------------------

------------
SCF SETTINGS
------------
Hamiltonian:
 Density Functional     Method          .... DFT(GTOs)
 Exchange Functional    Exchange        .... PBE
   PBE kappa parameter   XKappa         ....  0.804000
   PBE mue parameter    XMuePBE         ....  0.219520
 Correlation Functional Correlation     .... PBE
   PBE beta parameter  CBetaPBE         ....  0.066725
 LDA part of GGA corr.  LDAOpt          .... PW91-LDA
 Gradients option       PostSCFGGA      .... off
 Hybrid DFT is turned on
   Fraction HF Exchange ScalHFX         ....  0.250000
   Scaling of DF-GGA-X  ScalDFX         ....  0.750000
   Scaling of DF-GGA-C  ScalDFC         ....  1.000000
   Scaling of DF-LDA-C  ScalLDAC        ....  1.000000
   Perturbative correction              ....  0.000000
   NL short-range parameter             ....  6.900000
 RI-approximation to the Coulomb term is turned on
   Number of AuxJ basis functions       .... 436
   RIJ-COSX (HFX calculated with COS-X)).... on


General Settings:
 Integral files         IntName         .... /dev/shm/3470106/uracil_s0.inp-3470106/uracil_s0
 Hartree-Fock type      HFTyp           .... RHF
 Total Charge           Charge          ....    0
 Multiplicity           Mult            ....    1
 Number of Electrons    NEL             ....   58
 Basis Dimension        Dim             ....  132
 Nuclear Repulsion      ENuc            ....    353.7165754817 Eh

Convergence Acceleration:
 AO-DIIS                CNVDIIS         .... on
   Start iteration      DIISMaxIt       ....    12
   Startup error        DIISStart       ....  0.200000
   # of expansion vecs  DIISMaxEq       ....     5
   Bias factor          DIISBfac        ....   1.050
   Max. coefficient     DIISMaxC        ....  10.000
 MO-DIIS                CNVKDIIS        .... off
 Trust-Rad. Augm. Hess. CNVTRAH         .... auto
   Auto Start mean grad. ratio tolernc. ....  1.125000
   Auto Start start iteration           ....    50
   Auto Start num. interpolation iter.  ....    10
   Max. Number of Micro iterations      ....    24
   Max. Number of Macro iterations      .... Maxiter - #DIIS iter
   Number of Davidson start vectors     ....     2
   Converg. threshold    (grad. norm)   ....   1.000e-05
   Grad. Scal. Fac. for Micro threshold ....   0.100
   Minimum threshold for Micro iter.    ....   1.000e-02
   NR start threshold (gradient norm)   ....   1.000e-04
   Initial trust radius                 ....   0.400
   Minimum AH scaling param. (alpha)    ....   1.000
   Maximum AH scaling param. (alpha)    .... 1000.000
   Quad. conv. algorithm                .... NR
   White noise on init. David. guess    .... on
   Maximum white noise                  ....   0.010
   Pseudo random numbers                .... off
   Inactive MOs                         .... canonical
   Orbital update algorithm             .... Taylor
   Preconditioner                       .... Diag
   Full preconditioner red. dimension   ....   250
 SOSCF                  CNVSOSCF        .... on
   Start iteration      SOSCFMaxIt      ....   150
   Startup grad/error   SOSCFStart      ....  0.003300
   Hessian update       SOSCFHessUp     .... L-BFGS
 Level Shifting         CNVShift        .... on
   Level shift para.    LevelShift      ....    0.2500
   Turn off err/grad.   ShiftErr        ....    0.0010
 Zerner damping         CNVZerner       .... off
 Static damping         CNVDamp         .... on
   Fraction old density DampFac         ....    0.7000
   Max. Damping (<1)    DampMax         ....    0.9800
   Min. Damping (>=0)   DampMin         ....    0.0000
   Turn off err/grad.   DampErr         ....    0.1000

SCF Procedure:
 Maximum # iterations   MaxIter         ....   125
 SCF integral mode      SCFMode         .... Direct
   Integral package                     .... SHARK and LIBINT hybrid scheme
 Reset frequency        DirectResetFreq ....    20
 Integral Threshold     Thresh          ....  2.500e-11 Eh
 Primitive CutOff       TCut            ....  2.500e-12 Eh

Convergence Tolerance:
 Convergence Check Mode ConvCheckMode   .... Total+1el-Energy
 Convergence forced     ConvForced      .... 0
 Energy Change          TolE            ....  1.000e-08 Eh
 1-El. energy change                    ....  1.000e-05 Eh
 Orbital Gradient       TolG            ....  1.000e-05
 Orbital Rotation angle TolX            ....  1.000e-05
 DIIS Error             TolErr          ....  5.000e-07

------------------------------
INITIAL GUESS: MODEL POTENTIAL
------------------------------
Loading Hartree-Fock densities                     ... done
Calculating cut-offs                               ... done
Initializing the effective Hamiltonian             ... done
Setting up the integral package (SHARK)            ... done
Starting the Coulomb interaction                   ... done (   0.0 sec)
Making the grid                                    ... done (   0.1 sec)
Mapping shells                                     ... done
Starting the XC term evaluation                    ... done (   0.0 sec)
  promolecular density results
     # of electrons  =     58.001330499
     EX              =    -51.009092725
     EC              =     -1.955778569
     EX+EC           =    -52.964871294
Transforming the Hamiltonian                       ... done (   0.0 sec)
Diagonalizing the Hamiltonian                      ... done (   0.0 sec)
Back transforming the eigenvectors                 ... done (   0.0 sec)
Now organizing SCF variables                       ... done
                      ------------------
                      INITIAL GUESS DONE (   0.1 sec)
                      ------------------
             **** ENERGY FILE WAS UPDATED (/dev/shm/3470106/uracil_s0.inp-3470106/uracil_s0.en.tmp) ****
Finished Guess after   0.2 sec
Maximum memory used throughout the entire GUESS-calculation: 9.5 MB


           ************************************************************
           *        Program running with 16 parallel MPI-processes    *
           *              working on a common directory               *
           ************************************************************

-------------------------------------------------------------------------------------------
                                      ORCA LEAN-SCF
                              memory conserving SCF solver
-------------------------------------------------------------------------------------------

----------------------------------------D-I-I-S--------------------------------------------
Iteration    Energy (Eh)           Delta-E    RMSDP     MaxDP     DIISErr   Damp  Time(sec)
-------------------------------------------------------------------------------------------
               ***  Starting incremental Fock matrix formation  ***
    1    -413.8064642043941035     0.00e+00  6.24e-03  1.55e-01  2.67e-01  0.700   0.5
    2    -413.9331448604035018    -1.27e-01  3.77e-03  9.28e-02  1.00e-01  0.700   0.3
                               ***Turning on AO-DIIS***
    3    -413.9738405633118532    -4.07e-02  1.17e-03  1.79e-02  3.99e-02  0.700   0.3
    4    -414.0015284984069126    -2.77e-02  1.83e-03  3.59e-02  1.99e-02  0.000   0.2
    5    -414.0646526951325654    -6.31e-02  4.66e-04  9.34e-03  8.66e-03  0.000   0.3
                              *** Initializing SOSCF ***
---------------------------------------S-O-S-C-F--------------------------------------
Iteration    Energy (Eh)           Delta-E    RMSDP     MaxDP     MaxGrad    Time(sec)
--------------------------------------------------------------------------------------
    6    -414.0650455604310878    -3.93e-04  1.37e-04  2.48e-03  1.52e-03     0.2
               *** Restarting incremental Fock matrix formation ***
    7    -414.0650658182160555    -2.03e-05  9.36e-05  1.68e-03  3.13e-04     0.4
    8    -414.0650658720382467    -5.38e-08  4.49e-05  8.46e-04  6.11e-04     0.4
    9    -414.0650710137288684    -5.14e-06  2.33e-05  3.60e-04  1.09e-04     0.3
   10    -414.0650710818336506    -6.81e-08  8.19e-06  1.63e-04  6.42e-05     0.3
   11    -414.0650712782874621    -1.96e-07  5.22e-06  9.64e-05  2.06e-05     0.3
   12    -414.0650712729463407     5.34e-09  2.76e-06  5.50e-05  3.05e-05     0.3
                 **** Energy Check signals convergence ****

               *****************************************************
               *                     SUCCESS                       *
               *           SCF CONVERGED AFTER  12 CYCLES          *
               *****************************************************

Recomputing exchange energy using gridx3       ... done (    0.471 sec)
Old exchange energy                            :    -12.924443749 Eh
New exchange energy                            :    -12.924439221 Eh
Exchange energy change after final integration :      0.000004529 Eh
Total energy after final integration           :   -414.065066744 Eh
             **** ENERGY FILE WAS UPDATED (/dev/shm/3470106/uracil_s0.inp-3470106/uracil_s0.en.tmp) ****

----------------
TOTAL SCF ENERGY
----------------

Total Energy       :       -414.06506674432239 Eh          -11267.28328 eV

Components:
Nuclear Repulsion  :        353.71657548169645 Eh            9625.11735 eV
Electronic Energy  :       -767.78164675464279 Eh          -20892.40076 eV
One Electron Energy:      -1264.41637483453519 Eh          -34406.51875 eV
Two Electron Energy:        496.63472807989240 Eh           13514.11800 eV

Virial components:
Potential Energy   :       -824.29419454625827 Eh          -22430.18536 eV
Kinetic Energy     :        410.22912780193587 Eh           11162.90208 eV
Virial Ratio       :          2.00935072300434

DFT components:
N(Alpha)           :       29.000003628382 electrons
N(Beta)            :       29.000003628382 electrons
N(Total)           :       58.000007256765 electrons
E(X)               :      -38.758950348205 Eh       
E(C)               :       -1.974959739813 Eh       
E(XC)              :      -40.733910088017 Eh       

---------------
SCF CONVERGENCE
---------------

  Last Energy change         ...   -5.3411e-09  Tolerance :   1.0000e-08
  Last MAX-Density change    ...    5.4967e-05  Tolerance :   1.0000e-07
  Last RMS-Density change    ...    2.7567e-06  Tolerance :   5.0000e-09
  Last DIIS Error            ...    1.5186e-03  Tolerance :   5.0000e-07
  Last Orbital Gradient      ...    3.0489e-05  Tolerance :   1.0000e-05
  Last Orbital Rotation      ...    3.2775e-05  Tolerance :   1.0000e-05


----------------
ORBITAL ENERGIES
----------------

  NO   OCC          E(Eh)            E(eV) 
   0   2.0000     -19.195916      -522.3474 
   1   2.0000     -19.186978      -522.1042 
   2   2.0000     -14.477608      -393.9557 
   3   2.0000     -14.459305      -393.4577 
   4   2.0000     -10.395681      -282.8809 
   5   2.0000     -10.356755      -281.8216 
   6   2.0000     -10.329467      -281.0791 
   7   2.0000     -10.261851      -279.2392 
   8   2.0000      -1.092724       -29.7345 
   9   2.0000      -1.051683       -28.6178 
  10   2.0000      -0.998320       -27.1657 
  11   2.0000      -0.952029       -25.9060 
  12   2.0000      -0.817417       -22.2431 
  13   2.0000      -0.716360       -19.4931 
  14   2.0000      -0.684317       -18.6212 
  15   2.0000      -0.622084       -16.9278 
  16   2.0000      -0.585481       -15.9318 
  17   2.0000      -0.551951       -15.0193 
  18   2.0000      -0.502695       -13.6790 
  19   2.0000      -0.489347       -13.3158 
  20   2.0000      -0.465739       -12.6734 
  21   2.0000      -0.440230       -11.9793 
  22   2.0000      -0.430507       -11.7147 
  23   2.0000      -0.422061       -11.4849 
  24   2.0000      -0.389109       -10.5882 
  25   2.0000      -0.308956        -8.4071 
  26   2.0000      -0.301715        -8.2101 
  27   2.0000      -0.279123        -7.5953 
  28   2.0000      -0.267831        -7.2881 
  29   0.0000      -0.049910        -1.3581 
  30   0.0000       0.002773         0.0755 
  31   0.0000       0.037315         1.0154 
  32   0.0000       0.084824         2.3082 
  33   0.0000       0.091896         2.5006 
  34   0.0000       0.113775         3.0960 
  35   0.0000       0.130407         3.5486 
  36   0.0000       0.181694         4.9442 
  37   0.0000       0.198592         5.4040 
  38   0.0000       0.231524         6.3001 
  39   0.0000       0.252732         6.8772 
*Only the first 10 virtual orbitals were printed.

                    ********************************
                    * MULLIKEN POPULATION ANALYSIS *
                    ********************************

-----------------------
MULLIKEN ATOMIC CHARGES
-----------------------
   0 C :    0.232919
   1 N :   -0.203641
   2 C :    0.283702
   3 N :   -0.197770
   4 C :    0.145595
   5 C :   -0.176417
   6 O :   -0.285022
   7 H :    0.054631
   8 O :   -0.272073
   9 H :    0.173915
  10 H :    0.173819
  11 H :    0.070341
Sum of atomic charges:    0.0000000

--------------------------------
MULLIKEN REDUCED ORBITAL CHARGES
--------------------------------
  0 C s       :     2.992216  s :     2.992216
      pz      :     0.852241  p :     2.660331
      px      :     0.961756
      py      :     0.846334
      dz2     :     0.012825  d :     0.114535
      dxz     :     0.011145
      dyz     :     0.026530
      dx2y2   :     0.026968
      dxy     :     0.037066

  1 N s       :     3.396215  s :     3.396215
      pz      :     1.483700  p :     3.789405
      px      :     1.177120
      py      :     1.128585
      dz2     :     0.002452  d :     0.018020
      dxz     :     0.002265
      dyz     :     0.003708
      dx2y2   :     0.005190
      dxy     :     0.004404

  2 C s       :     2.971879  s :     2.971879
      pz      :     0.852337  p :     2.612774
      px      :     0.874481
      py      :     0.885955
      dz2     :     0.019176  d :     0.131645
      dxz     :     0.020636
      dyz     :     0.021711
      dx2y2   :     0.045381
      dxy     :     0.024742

  3 N s       :     3.377769  s :     3.377769
      pz      :     1.481779  p :     3.799701
      px      :     1.152597
      py      :     1.165325
      dz2     :     0.003058  d :     0.020300
      dxz     :     0.003930
      dyz     :     0.002588
      dx2y2   :     0.005960
      dxy     :     0.004763

  4 C s       :     3.057526  s :     3.057526
      pz      :     0.909645  p :     2.744848
      px      :     0.874187
      py      :     0.961017
      dz2     :     0.008949  d :     0.052031
      dxz     :     0.006374
      dyz     :     0.011133
      dx2y2   :     0.010288
      dxy     :     0.015286

  5 C s       :     3.227821  s :     3.227821
      pz      :     1.053901  p :     2.920283
      px      :     0.973585
      py      :     0.892797
      dz2     :     0.003277  d :     0.028314
      dxz     :     0.003567
      dyz     :     0.005357
      dx2y2   :     0.008572
      dxy     :     0.007541

  6 O s       :     3.772412  s :     3.772412
      pz      :     1.420622  p :     4.495528
      px      :     1.544720
      py      :     1.530186
      dz2     :     0.003139  d :     0.017082
      dxz     :     0.003295
      dyz     :     0.003476
      dx2y2   :     0.002673
      dxy     :     0.004498

  7 H s       :     0.920895  s :     0.920895
      pz      :     0.008054  p :     0.024475
      px      :     0.007624
      py      :     0.008796

  8 O s       :     3.764959  s :     3.764959
      pz      :     1.476459  p :     4.489922
      px      :     1.672928
      py      :     1.340535
      dz2     :     0.002171  d :     0.017191
      dxz     :     0.000963
      dyz     :     0.004521
      dx2y2   :     0.005073
      dxy     :     0.004464

  9 H s       :     0.783090  s :     0.783090
      pz      :     0.010289  p :     0.042995
      px      :     0.024964
      py      :     0.007741

 10 H s       :     0.782074  s :     0.782074
      pz      :     0.011348  p :     0.044106
      px      :     0.007567
      py      :     0.025191

 11 H s       :     0.906774  s :     0.906774
      pz      :     0.004588  p :     0.022885
      px      :     0.013999
      py      :     0.004297



                     *******************************
                     * LOEWDIN POPULATION ANALYSIS *
                     *******************************

----------------------
LOEWDIN ATOMIC CHARGES
----------------------
   0 C :    0.083722
   1 N :    0.002482
   2 C :    0.112786
   3 N :    0.014894
   4 C :    0.060688
   5 C :   -0.118889
   6 O :   -0.251148
   7 H :    0.052082
   8 O :   -0.224811
   9 H :    0.111101
  10 H :    0.108416
  11 H :    0.048678

-------------------------------
LOEWDIN REDUCED ORBITAL CHARGES
-------------------------------
  0 C s       :     2.841036  s :     2.841036
      pz      :     0.866212  p :     2.820354
      px      :     0.993168
      py      :     0.960974
      dz2     :     0.026908  d :     0.254887
      dxz     :     0.023173
      dyz     :     0.056585
      dx2y2   :     0.060882
      dxy     :     0.087338

  1 N s       :     3.070809  s :     3.070809
      pz      :     1.448963  p :     3.876581
      px      :     1.222000
      py      :     1.205618
      dz2     :     0.005336  d :     0.050128
      dxz     :     0.005851
      dyz     :     0.009496
      dx2y2   :     0.016009
      dxy     :     0.013436

  2 C s       :     2.815056  s :     2.815056
      pz      :     0.895116  p :     2.785390
      px      :     0.938012
      py      :     0.952263
      dz2     :     0.036195  d :     0.286767
      dxz     :     0.044845
      dyz     :     0.046976
      dx2y2   :     0.103928
      dxy     :     0.054825

  3 N s       :     3.050071  s :     3.050071
      pz      :     1.453223  p :     3.881290
      px      :     1.214985
      py      :     1.213082
      dz2     :     0.006183  d :     0.053745
      dxz     :     0.009690
      dyz     :     0.006285
      dx2y2   :     0.017578
      dxy     :     0.014008

  4 C s       :     2.860225  s :     2.860225
      pz      :     0.929991  p :     2.954833
      px      :     0.991242
      py      :     1.033599
      dz2     :     0.019373  d :     0.124255
      dxz     :     0.014335
      dyz     :     0.025384
      dx2y2   :     0.026406
      dxy     :     0.038756

  5 C s       :     2.880441  s :     2.880441
      pz      :     1.068084  p :     3.159248
      px      :     1.039486
      py      :     1.051678
      dz2     :     0.007523  d :     0.079200
      dxz     :     0.009141
      dyz     :     0.013365
      dx2y2   :     0.025263
      dxy     :     0.023908

  6 O s       :     3.575727  s :     3.575727
      pz      :     1.453346  p :     4.646652
      px      :     1.601890
      py      :     1.591415
      dz2     :     0.003942  d :     0.028770
      dxz     :     0.006059
      dyz     :     0.006448
      dx2y2   :     0.003732
      dxy     :     0.008590

  7 H s       :     0.874651  s :     0.874651
      pz      :     0.024623  p :     0.073267
      px      :     0.023710
      py      :     0.024934

  8 O s       :     3.568500  s :     3.568500
      pz      :     1.486100  p :     4.627364
      px      :     1.696289
      py      :     1.444975
      dz2     :     0.003942  d :     0.028947
      dxz     :     0.001291
      dyz     :     0.006598
      dx2y2   :     0.009082
      dxy     :     0.008034

  9 H s       :     0.765068  s :     0.765068
      pz      :     0.033879  p :     0.123831
      px      :     0.067958
      py      :     0.021994

 10 H s       :     0.767574  s :     0.767574
      pz      :     0.035110  p :     0.124010
      px      :     0.022219
      py      :     0.066681

 11 H s       :     0.883515  s :     0.883515
      pz      :     0.013848  p :     0.067806
      px      :     0.040249
      py      :     0.013710



                      *****************************
                      * MAYER POPULATION ANALYSIS *
                      *****************************

  NA   - Mulliken gross atomic population
  ZA   - Total nuclear charge
  QA   - Mulliken gross atomic charge
  VA   - Mayer's total valence
  BVA  - Mayer's bonded valence
  FA   - Mayer's free valence

  ATOM       NA         ZA         QA         VA         BVA        FA
  0 C      5.7671     6.0000     0.2329     4.2502     4.2502     0.0000
  1 N      7.2036     7.0000    -0.2036     3.1229     3.1229     0.0000
  2 C      5.7163     6.0000     0.2837     4.3094     4.3094     0.0000
  3 N      7.1978     7.0000    -0.1978     3.2415     3.2415     0.0000
  4 C      5.8544     6.0000     0.1456     3.8592     3.8592    -0.0000
  5 C      6.1764     6.0000    -0.1764     3.8531     3.8531     0.0000
  6 O      8.2850     8.0000    -0.2850     2.2300     2.2300     0.0000
  7 H      0.9454     1.0000     0.0546     1.0065     1.0065     0.0000
  8 O      8.2721     8.0000    -0.2721     2.2366     2.2366    -0.0000
  9 H      0.8261     1.0000     0.1739     1.0063     1.0063     0.0000
 10 H      0.8262     1.0000     0.1738     0.9903     0.9903     0.0000
 11 H      0.9297     1.0000     0.0703     0.9842     0.9842    -0.0000

  Mayer bond orders larger than 0.100000
B(  0-C ,  1-N ) :   1.0402 B(  0-C ,  5-C ) :   1.0654 B(  0-C ,  8-O ) :   2.0576 
B(  1-N ,  2-C ) :   1.0977 B(  1-N ,  9-H ) :   0.8982 B(  2-C ,  3-N ) :   1.0521 
B(  2-C ,  6-O ) :   2.0696 B(  3-N ,  4-C ) :   1.1472 B(  3-N , 10-H ) :   0.9137 
B(  4-C ,  5-C ) :   1.6683 B(  4-C , 11-H ) :   0.9537 B(  5-C ,  7-H ) :   0.9735 


-------
TIMINGS
-------

Total SCF time: 0 days 0 hours 0 min 4 sec 

Total time                  ....       4.532 sec
Sum of individual times     ....       4.479 sec  ( 98.8%)

SCF preparation             ....       0.123 sec  (  2.7%)
Fock matrix formation       ....       4.215 sec  ( 93.0%)
  Startup                   ....       0.007 sec  (  0.2% of F)
  Split-RI-J                ....       0.220 sec  (  5.2% of F)
  Chain of spheres X        ....       2.975 sec  ( 70.6% of F)
  XC integration            ....       0.964 sec  ( 22.9% of F)
    XC Preparation          ....       0.000 sec  (  0.0% of XC)
    Basis function eval.    ....       0.350 sec  ( 36.3% of XC)
    Density eval.           ....       0.130 sec  ( 13.5% of XC)
    XC-Functional eval.     ....       0.093 sec  (  9.6% of XC)
    XC-Potential eval.      ....       0.174 sec  ( 18.1% of XC)
Diagonalization             ....       0.000 sec  (  0.0%)
Density matrix formation    ....       0.014 sec  (  0.3%)
Total Energy calculation    ....       0.013 sec  (  0.3%)
Population analysis         ....       0.013 sec  (  0.3%)
Orbital Transformation      ....       0.011 sec  (  0.2%)
Orbital Orthonormalization  ....       0.000 sec  (  0.0%)
DIIS solution               ....       0.059 sec  (  1.3%)
SOSCF solution              ....       0.031 sec  (  0.7%)
Finished LeanSCF after   4.5 sec

Maximum memory used throughout the entire LEANSCF-calculation: 19.2 MB


-------------------------------------------------------------------------------
                          DFT DISPERSION CORRECTION                            
                                                                               
                                DFTD4 V3.4.0                                   
-------------------------------------------------------------------------------
The PBE0 functional is recognized
Active option DFTDOPT                   ...         5   

-------------------------   ----------------
Dispersion correction           -0.009694130
-------------------------   ----------------


-------------------------   --------------------
FINAL SINGLE POINT ENERGY      -414.074760874352
-------------------------   --------------------



           ************************************************************
           *        Program running with 16 parallel MPI-processes    *
           *              working on a common directory               *
           ************************************************************
------------------------------------------------------------------------------
                         ORCA SCF GRADIENT CALCULATION
------------------------------------------------------------------------------

Nuc. rep. gradient        (SHARK) ... done (  0.0 sec)
HCore & Overlap gradient  (SHARK) ... done (  0.0 sec)
Split-RIJ-J gradient      (SHARK) ... done (  0.1 sec)
COSX-gradient                     ... done (  1.6 sec)
XC gradient                       ... done (  0.4 sec)
Dispersion correction             ... done (  0.0 sec)

-------------------
DISPERSION GRADIENT
-------------------

   1   C   :    0.000020799    0.000179452    0.000063923
   2   N   :    0.000094301    0.000033686   -0.000025458
   3   C   :    0.000094935   -0.000141816   -0.000096548
   4   N   :   -0.000068184   -0.000134874   -0.000026390
   5   C   :   -0.000224262   -0.000067737    0.000065373
   6   C   :   -0.000132119    0.000097919    0.000094280
   7   O   :    0.000171942   -0.000185080   -0.000145824
   8   H   :   -0.000056307    0.000052805    0.000044683
   9   O   :    0.000089766    0.000265357    0.000070073
  10   H   :    0.000120206    0.000037527   -0.000034536
  11   H   :   -0.000032096   -0.000106458   -0.000029795
  12   H   :   -0.000078980   -0.000030782    0.000020218

Difference to translation invariance:
           :    0.0000000000   -0.0000000000   -0.0000000000

Difference to rotation invariance:
           :    0.0000000000    0.0000000000   -0.0000000000

Norm of the Dispersion gradient    ...    0.0006471357
RMS gradient                       ...    0.0001078560
MAX gradient                       ...    0.0002653572

------------------
CARTESIAN GRADIENT
------------------

   1   C   :   -0.015613026   -0.046713862   -0.012408466
   2   N   :    0.025657076    0.019458009   -0.002775025
   3   C   :   -0.037739888    0.037216471    0.030635280
   4   N   :   -0.001199851   -0.010548211   -0.003784756
   5   C   :   -0.008099582   -0.018933963   -0.004316716
   6   C   :   -0.006363846    0.019506887    0.010556083
   7   O   :    0.035914130   -0.037512093   -0.029961493
   8   H   :    0.002456525   -0.002007116   -0.001819539
   9   O   :    0.015648109    0.039376402    0.009417088
  10   H   :    0.000773516    0.000195877   -0.000239174
  11   H   :   -0.005038661   -0.001417539    0.001498486
  12   H   :   -0.006394502    0.001379139    0.003198231

Difference to translation invariance:
           :    0.0000000001    0.0000000001    0.0000000000

Difference to rotation invariance:
           :    0.0000249529   -0.0000111892    0.0000244951

Norm of the Cartesian gradient     ...    0.1185329748
RMS gradient                       ...    0.0197554958
MAX gradient                       ...    0.0467138625

-------
TIMINGS
-------

Total SCF gradient time     ....        2.212 sec

Densities                   ....       0.000 sec  (  0.0%)
One electron gradient       ....       0.017 sec  (  0.8%)
RI-J Coulomb gradient       ....       0.149 sec  (  6.8%)
COSX gradient               ....       1.569 sec  ( 70.9%)
XC gradient                 ....       0.434 sec  ( 19.6%)

Maximum memory used throughout the entire SCFGRAD-calculation: 27.9 MB
------------------------------------------------------------------------------
                         ORCA GEOMETRY RELAXATION STEP
------------------------------------------------------------------------------

Reading the OPT-File                    .... done
Getting information on internals        .... done
Copying old internal coords+grads       .... done
Making the new internal coordinates     .... (2022 redundants) done
Validating the new internal coordinates .... (2022 redundants) done
Calculating the B-matrix                .... done
Calculating the G,G- and P matrices     .... done
Transforming gradient to internals      .... done
Projecting the internal gradient        .... done
Number of atoms                         ....  12
Number of internal coordinates          ....  54
Current Energy                          ....  -414.074760874 Eh
Current gradient norm                   ....     0.118532975 Eh/bohr
Maximum allowed component of the step   ....  0.300
Current trust radius                    ....  0.300
Evaluating the initial hessian          ....  (Almloef) done
Projecting the Hessian                  .... done
Forming the augmented Hessian           .... done
Diagonalizing the augmented Hessian     .... done
Last element of RFO vector              ....  0.993415323
Lowest eigenvalues of augmented Hessian:
 -0.009205820  0.018475960  0.021002946  0.023898111  0.024165875
Length of the computed step             ....  0.115328138
The final length of the internal step   ....  0.115328138
Converting the step to Cartesian space:
 Initial RMS(Int)=    0.0156941717
Transforming coordinates:
 Iter   0:  RMS(Cart)=    0.0236171834 RMS(Int)=    0.8551744827
done
Storing new coordinates                 .... done

                                .--------------------.
          ----------------------|Geometry convergence|-------------------------
          Item                value                   Tolerance       Converged
          ---------------------------------------------------------------------
          RMS gradient        0.0115599574            0.0001000000      NO
          MAX gradient        0.0599555760            0.0003000000      NO
          RMS step            0.0156941717            0.0020000000      NO
          MAX step            0.0630600600            0.0040000000      NO
          ........................................................
          Max(Bonds)      0.0334      Max(Angles)    1.85
          Max(Dihed)        0.02      Max(Improp)    0.00
          ---------------------------------------------------------------------

The optimization has not yet converged - more geometry cycles are needed


    ---------------------------------------------------------------------------
                         Redundant Internal Coordinates
                            (Angstroem and degrees)

        Definition                    Value    dE/dq     Step     New-Value
    ----------------------------------------------------------------------------
     1. B(N   1,C   0)                1.3985  0.002317 -0.0020    1.3965   
     2. B(C   2,N   1)                1.3898  0.015320 -0.0142    1.3756   
     3. B(N   3,C   2)                1.3981  0.016306 -0.0158    1.3824   
     4. B(C   4,N   3)                1.3742  0.006292 -0.0057    1.3685   
     5. B(C   5,C   4)                1.3679  0.019186 -0.0148    1.3531   
     6. B(C   5,C   0)                1.4677  0.010940 -0.0119    1.4558   
     7. B(O   6,C   2)                1.2484  0.059956 -0.0334    1.2150   
     8. B(H   7,C   5)                1.0826 -0.003635  0.0051    1.0877   
     9. B(O   8,C   0)                1.2408  0.043401 -0.0235    1.2173   
    10. B(H   9,N   1)                1.0156  0.000831 -0.0010    1.0145   
    11. B(H  10,N   3)                1.0146  0.002361 -0.0029    1.0117   
    12. B(H  11,C   4)                1.1004  0.006046 -0.0090    1.0914   
    13. A(N   1,C   0,O   8)          119.61 -0.005435    0.71    120.31   
    14. A(N   1,C   0,C   5)          116.16  0.009332   -1.23    114.93   
    15. A(C   5,C   0,O   8)          124.23 -0.003896    0.53    124.76   
    16. A(C   0,N   1,C   2)          124.39 -0.012840    1.85    126.23   
    17. A(C   2,N   1,H   9)          117.12  0.006368   -0.91    116.20   
    18. A(C   0,N   1,H   9)          118.50  0.006472   -0.93    117.56   
    19. A(N   3,C   2,O   6)          121.10 -0.004931    0.67    121.78   
    20. A(N   1,C   2,O   6)          122.99 -0.004810    0.65    123.64   
    21. A(N   1,C   2,N   3)          115.91  0.009741   -1.33    114.58   
    22. A(C   2,N   3,H  10)          116.58  0.005683   -0.85    115.73   
    23. A(C   2,N   3,C   4)          123.42 -0.001958    0.20    123.63   
    24. A(C   4,N   3,H  10)          120.00 -0.003725    0.64    120.64   
    25. A(N   3,C   4,C   5)          120.36 -0.005161    0.65    121.01   
    26. A(C   5,C   4,H  11)          121.37 -0.001640    0.35    121.72   
    27. A(N   3,C   4,H  11)          118.27  0.006800   -1.00    117.27   
    28. A(C   0,C   5,C   4)          119.76  0.000886   -0.14    119.62   
    29. A(C   4,C   5,H   7)          122.88 -0.000037    0.00    122.88   
    30. A(C   0,C   5,H   7)          117.36 -0.000849    0.14    117.50   
    31. D(H   9,N   1,C   0,C   5)   -179.96  0.000008   -0.01   -179.97   
    32. D(H   9,N   1,C   0,O   8)      0.04  0.000005   -0.01      0.03   
    33. D(C   2,N   1,C   0,O   8)   -180.00 -0.000000   -0.00   -180.00   
    34. D(C   2,N   1,C   0,C   5)     -0.00  0.000002   -0.00     -0.00   
    35. D(O   6,C   2,N   1,C   0)   -179.95  0.000007   -0.01   -179.96   
    36. D(N   3,C   2,N   1,C   0)      0.06  0.000012   -0.02      0.04   
    37. D(N   3,C   2,N   1,H   9)   -179.98  0.000007   -0.01   -179.99   
    38. D(O   6,C   2,N   1,H   9)      0.01  0.000002   -0.00      0.01   
    39. D(H  10,N   3,C   2,O   6)     -0.03 -0.000007    0.01     -0.01   
    40. D(H  10,N   3,C   2,N   1)    179.96 -0.000012    0.02    179.98   
    41. D(C   4,N   3,C   2,O   6)    179.93 -0.000011    0.02    179.95   
    42. D(C   4,N   3,C   2,N   1)     -0.08 -0.000016    0.02     -0.05   
    43. D(H  11,C   4,N   3,C   2)   -179.97 -0.000001   -0.01   -179.97   
    44. D(C   5,C   4,N   3,H  10)    179.99 -0.000003    0.00    179.99   
    45. D(C   5,C   4,N   3,C   2)      0.03 -0.000003   -0.00      0.03   
    46. D(H  11,C   4,N   3,H  10)     -0.01 -0.000001   -0.00     -0.01   
    47. D(H   7,C   5,C   4,H  11)      0.01  0.000001   -0.00      0.01   
    48. D(C   0,C   5,C   4,H  11)   -179.97  0.000006   -0.02   -179.98   
    49. D(C   0,C   5,C   4,N   3)      0.03  0.000008   -0.02      0.01   
    50. D(H   7,C   5,C   0,O   8)     -0.03 -0.000004    0.01     -0.02   
    51. D(H   7,C   5,C   0,N   1)    179.97 -0.000007    0.01    179.98   
    52. D(H   7,C   5,C   4,N   3)   -179.99  0.000003   -0.01   -180.00   
    53. D(C   4,C   5,C   0,O   8)    179.95 -0.000009    0.02    179.97   
    54. D(C   4,C   5,C   0,N   1)     -0.05 -0.000012    0.02     -0.02   
    ----------------------------------------------------------------------------

Geometry step timings:
Preparation and reading OPT file:      0.000 s (10.917 %)
Internal coordinates            :      0.000 s ( 1.339 %)
B/P matrices and projection     :      0.000 s (20.906 %)
Hessian update/contruction      :      0.000 s ( 4.583 %)
Making the step                 :      0.001 s (37.127 %)
Converting the step to Cartesian:      0.000 s ( 2.678 %)
Storing new data                :      0.000 s ( 1.339 %)
Checking convergence            :      0.000 s ( 0.154 %)
Final printing                  :      0.000 s (20.391 %)
Total time                      :      0.002 s

Time for energy+gradient        :     10.115 s
Time for complete geometry iter :     10.328 s

         *************************************************************
         *                GEOMETRY OPTIMIZATION CYCLE   2            *
         *************************************************************
---------------------------------
CARTESIAN COORDINATES (ANGSTROEM)
---------------------------------
  C      0.711823    0.994340    0.546738
  N      1.505511    0.081281   -0.150792
  C      1.145851   -1.194836   -0.517602
  N     -0.131463   -1.563551   -0.138863
  C     -0.985284   -0.742641    0.546593
  C     -0.614756    0.509832    0.899999
  O      1.876598   -1.951779   -1.125263
  H     -1.268324    1.187474    1.444683
  O      1.141013    2.101147    0.816350
  H      2.438636    0.377658   -0.416779
  H     -0.414293   -2.499113   -0.400219
  H     -1.971082   -1.140567    0.793477

----------------------------
CARTESIAN COORDINATES (A.U.)
----------------------------
  NO LB      ZA    FRAG     MASS         X           Y           Z
   0 C     6.0000    0    12.011    1.345151    1.879030    1.033186
   1 N     7.0000    0    14.007    2.845004    0.153599   -0.284955
   2 C     6.0000    0    12.011    2.165344   -2.257914   -0.978126
   3 N     7.0000    0    14.007   -0.248429   -2.954683   -0.262414
   4 C     6.0000    0    12.011   -1.861918   -1.403389    1.032911
   5 C     6.0000    0    12.011   -1.161720    0.963442    1.700751
   6 O     8.0000    0    15.999    3.546257   -3.688328   -2.126438
   7 H     1.0000    0     1.008   -2.396785    2.244000    2.730055
   8 O     8.0000    0    15.999    2.156201    3.970592    1.542678
   9 H     1.0000    0     1.008    4.608355    0.713669   -0.787598
  10 H     1.0000    0     1.008   -0.782900   -4.722639   -0.756304
  11 H     1.0000    0     1.008   -3.724806   -2.155358    1.499455

--------------------------------
INTERNAL COORDINATES (ANGSTROEM)
--------------------------------
 C      0   0   0     0.000000000000     0.00000000     0.00000000
 N      1   0   0     1.396483029697     0.00000000     0.00000000
 C      2   1   0     1.375638690949   126.23648714     0.00000000
 N      3   2   1     1.382361299278   114.57963095     0.03994696
 C      4   3   2     1.368486201276   123.62367546   359.94738936
 C      5   4   3     1.353098420020   121.01270020     0.02834013
 O      3   2   1     1.214992179716   123.64487331   180.03564782
 H      6   5   4     1.087672377919   122.88389744   180.00326952
 O      1   2   3     1.217339301340   120.31194764   179.99981091
 H      2   1   3     1.014549563345   117.56061763   180.02854678
 H      4   3   2     1.011719220960   115.73336535   179.98110557
 H      5   4   3     1.091372451033   117.26795024   180.02527746

---------------------------
INTERNAL COORDINATES (A.U.)
---------------------------
 C      0   0   0     0.000000000000     0.00000000     0.00000000
 N      1   0   0     2.638970476796     0.00000000     0.00000000
 C      2   1   0     2.599580385120   126.23648714     0.00000000
 N      3   2   1     2.612284273766   114.57963095     0.03994696
 C      4   3   2     2.586064138461   123.62367546   359.94738936
 C      5   4   3     2.556985446080   121.01270020     0.02834013
 O      3   2   1     2.296002474518   123.64487331   180.03564782
 H      6   5   4     2.055402917697   122.88389744   180.00326952
 O      1   2   3     2.300437891592   120.31194764   179.99981091
 H      2   1   3     1.917220824011   117.56061763   180.02854678
 H      4   3   2     1.911872252039   115.73336535   179.98110557
 H      5   4   3     2.062395042559   117.26795024   180.02527746



           ************************************************************
           *        Program running with 16 parallel MPI-processes    *
           *              working on a common directory               *
           ************************************************************
------------------------------------------------------------------------------
                   ___                                                        
                  /   \      - P O W E R E D   B Y -                         
                 /     \                                                     
                 |  |  |   _    _      __       _____    __    __             
                 |  |  |  | |  | |    /  \     |  _  \  |  |  /  |          
                  \  \/   | |  | |   /    \    | | | |  |  | /  /          
                 / \  \   | |__| |  /  /\  \   | |_| |  |  |/  /          
                |  |  |   |  __  | /  /__\  \  |    /   |      \           
                |  |  |   | |  | | |   __   |  |    \   |  |\   \          
                \     /   | |  | | |  |  |  |  | |\  \  |  | \   \       
                 \___/    |_|  |_| |__|  |__|  |_| \__\ |__|  \__/        
                                                                              
                      - O R C A' S   B I G   F R I E N D -                    
                                      &                                       
                       - I N T E G R A L  F E E D E R -                       
                                                                              
 v1 FN, 2020, v2 2021, v3 2022-2024                                           
------------------------------------------------------------------------------


----------------------
SHARK INTEGRAL PACKAGE
----------------------

Number of atoms                             ...     12
Number of basis functions                   ...    132
Number of shells                            ...     60
Maximum angular momentum                    ...      2
Integral batch strategy                     ... SHARK/LIBINT Hybrid
RI-J (if used) integral strategy            ... SPLIT-RIJ (Revised 2003 algorithm where possible)
Printlevel                                  ...      1
Contraction scheme used                     ... SEGMENTED contraction
Prescreening option                         ... SCHWARTZ
   Thresh                                   ... 2.500e-11
   Tcut                                     ... 2.500e-12
   Tpresel                                  ... 2.500e-12 
Coulomb Range Separation                    ... NOT USED
Exchange Range Separation                   ... NOT USED
Multipole approximations                    ... NOT USED
Finite Nucleus Model                        ... NOT USED
CABS basis                                  ... NOT available
Auxiliary Coulomb fitting basis             ... AVAILABLE
   # of basis functions in Aux-J            ...    436
   # of shells in Aux-J                     ...    140
   Maximum angular momentum in Aux-J        ...      4
Auxiliary J/K fitting basis                 ... NOT available
Auxiliary Correlation fitting basis         ... NOT available
Auxiliary 'external' fitting basis          ... NOT available

Checking pre-screening integrals            ... done (  0.0 sec) Dimension = 60
Check shell pair data                       ... done (  0.0 sec)
Shell pair information
Shell pair cut-off parameter TPreSel        ...   2.5e-12
Total number of shell pairs                 ...      1830
Shell pairs after pre-screening             ...      1737
Total number of primitive shell pairs       ...      6902
Primitive shell pairs kept                  ...      4906
          la=0 lb=0:    493 shell pairs
          la=1 lb=0:    613 shell pairs
          la=1 lb=1:    204 shell pairs
          la=2 lb=0:    238 shell pairs
          la=2 lb=1:    154 shell pairs
          la=2 lb=2:     35 shell pairs

Calculating one electron integrals          ... done (  0.0 sec)
Calculating RI/J V-Matrix + Cholesky decomp.... done (  0.0 sec)
Calculating Nuclear repulsion               ... done (  0.0 sec) ENN=    357.392822926331 Eh

Diagonalization of the overlap matrix:
Smallest eigenvalue                        ... 1.290e-03
Time for diagonalization                   ...    0.002 sec
Threshold for overlap eigenvalues          ... 1.000e-07
Number of eigenvalues below threshold      ... 0
Time for construction of square roots      ...    0.001 sec
Total time needed                          ...    0.003 sec

-------------------
DFT GRID GENERATION
-------------------

General Integration Accuracy     IntAcc      ... 4.959
Radial Grid Type                 RadialGrid  ... OptM3 with GC (2021)
Angular Grid (max. ang.)         AngularGrid ... 6 (Lebedev-590)
Angular grid pruning method      GridPruning ... 4 (adaptive)
Weight generation scheme         WeightScheme... mBecke (2022)
Basis function cutoff            BFCut       ... 1.0000e-11
Integration weight cutoff        WCut        ... 1.0000e-14
Partially contracted basis set               ... off
Rotationally invariant grid construction     ... off
Angular grids for H and He will be reduced by one unit

Total number of grid points                  ...   150050
Total number of batches                      ...     2352
Average number of points per batch           ...       63
Average number of grid points per atom       ...    12504

--------------------
COSX GRID GENERATION
--------------------

GRIDX 1
-------
General Integration Accuracy     IntAcc      ... 4.020
Radial Grid Type                 RadialGrid  ... OptM3 with GC (2021)
Angular Grid (max. ang.)         AngularGrid ... 2 (Lebedev-110)
Angular grid pruning method      GridPruning ... 4 (adaptive)
Weight generation scheme         WeightScheme... mBecke (2022)
Basis function cutoff            BFCut       ... 1.0000e-11
Integration weight cutoff        WCut        ... 1.0000e-14
Partially contracted basis set               ... on
Rotationally invariant grid construction     ... off
Angular grids for H and He will be reduced by one unit

Total number of grid points                  ...    17601
Total number of batches                      ...      145
Average number of points per batch           ...      121
Average number of grid points per atom       ...     1467
UseSFitting                                  ... on

GRIDX 2
-------
General Integration Accuracy     IntAcc      ... 4.338
Radial Grid Type                 RadialGrid  ... OptM3 with GC (2021)
Angular Grid (max. ang.)         AngularGrid ... 3 (Lebedev-194)
Angular grid pruning method      GridPruning ... 4 (adaptive)
Weight generation scheme         WeightScheme... mBecke (2022)
Basis function cutoff            BFCut       ... 1.0000e-11
Integration weight cutoff        WCut        ... 1.0000e-14
Partially contracted basis set               ... on
Rotationally invariant grid construction     ... off
Angular grids for H and He will be reduced by one unit

Total number of grid points                  ...    38999
Total number of batches                      ...      312
Average number of points per batch           ...      124
Average number of grid points per atom       ...     3250
UseSFitting                                  ... on

GRIDX 3
-------
General Integration Accuracy     IntAcc      ... 4.871
Radial Grid Type                 RadialGrid  ... OptM3 with GC (2021)
[...]
      dx2y2   :     0.029791
      dxy     :     0.038392

  1 N s       :     3.401327  s :     3.401327
      pz      :     1.490151  p :     3.810991
      px      :     1.191204
      py      :     1.129635
      dz2     :     0.002417  d :     0.017936
      dxz     :     0.002113
      dyz     :     0.003875
      dx2y2   :     0.005326
      dxy     :     0.004205

  2 C s       :     2.960495  s :     2.960495
      pz      :     0.853150  p :     2.632207
      px      :     0.883833
      py      :     0.895223
      dz2     :     0.021341  d :     0.143034
      dxz     :     0.022143
      dyz     :     0.023446
      dx2y2   :     0.050064
      dxy     :     0.026039

  3 N s       :     3.372492  s :     3.372492
      pz      :     1.482002  p :     3.805025
      px      :     1.159913
      py      :     1.163109
      dz2     :     0.003088  d :     0.020704
      dxz     :     0.003997
      dyz     :     0.002666
      dx2y2   :     0.006285
      dxy     :     0.004668

  4 C s       :     3.048727  s :     3.048727
      pz      :     0.912273  p :     2.752341
      px      :     0.877369
      py      :     0.962699
      dz2     :     0.009268  d :     0.053817
      dxz     :     0.006304
      dyz     :     0.011755
      dx2y2   :     0.010475
      dxy     :     0.016015

  5 C s       :     3.228461  s :     3.228461
      pz      :     1.056982  p :     2.931606
      px      :     0.976140
      py      :     0.898484
      dz2     :     0.003402  d :     0.029065
      dxz     :     0.003605
      dyz     :     0.005538
      dx2y2   :     0.008731
      dxy     :     0.007789

  6 O s       :     3.737944  s :     3.737944
      pz      :     1.419165  p :     4.486751
      px      :     1.538124
      py      :     1.529461
      dz2     :     0.003568  d :     0.019160
      dxz     :     0.003723
      dyz     :     0.003812
      dx2y2   :     0.003098
      dxy     :     0.004958

  7 H s       :     0.922066  s :     0.922066
      pz      :     0.007977  p :     0.024297
      px      :     0.007863
      py      :     0.008456

  8 O s       :     3.738416  s :     3.738416
      pz      :     1.472164  p :     4.479773
      px      :     1.656196
      py      :     1.351412
      dz2     :     0.002330  d :     0.018786
      dxz     :     0.001115
      dyz     :     0.004871
      dx2y2   :     0.005461
      dxy     :     0.005009

  9 H s       :     0.789516  s :     0.789516
      pz      :     0.010276  p :     0.042918
      px      :     0.024608
      py      :     0.008034

 10 H s       :     0.787942  s :     0.787942
      pz      :     0.011477  p :     0.044370
      px      :     0.007725
      py      :     0.025168

 11 H s       :     0.915868  s :     0.915868
      pz      :     0.004535  p :     0.023001
      px      :     0.013832
      py      :     0.004634



                     *******************************
                     * LOEWDIN POPULATION ANALYSIS *
                     *******************************

----------------------
LOEWDIN ATOMIC CHARGES
----------------------
   0 C :    0.071803
   1 N :   -0.006733
   2 C :    0.082022
   3 N :    0.016768
   4 C :    0.060838
   5 C :   -0.124642
   6 O :   -0.213499
   7 H :    0.052179
   8 O :   -0.194564
   9 H :    0.105823
  10 H :    0.104656
  11 H :    0.045348

-------------------------------
LOEWDIN REDUCED ORBITAL CHARGES
-------------------------------
  0 C s       :     2.830938  s :     2.830938
      pz      :     0.863262  p :     2.824690
      px      :     0.994427
      py      :     0.967001
      dz2     :     0.027465  d :     0.272569
      dxz     :     0.023297
      dyz     :     0.062257
      dx2y2   :     0.067540
      dxy     :     0.092009

  1 N s       :     3.070698  s :     3.070698
      pz      :     1.452599  p :     3.885666
      px      :     1.224806
      py      :     1.208261
      dz2     :     0.005387  d :     0.050369
      dxz     :     0.005547
      dyz     :     0.009983
      dx2y2   :     0.016351
      dxy     :     0.013101

  2 C s       :     2.799204  s :     2.799204
      pz      :     0.896918  p :     2.802367
      px      :     0.946584
      py      :     0.958865
      dz2     :     0.040885  d :     0.316407
      dxz     :     0.049050
      dyz     :     0.051832
      dx2y2   :     0.116883
      dxy     :     0.057758

  3 N s       :     3.045354  s :     3.045354
      pz      :     1.452202  p :     3.882685
      px      :     1.219255
      py      :     1.211228
      dz2     :     0.006391  d :     0.055194
      dxz     :     0.009924
      dyz     :     0.006466
      dx2y2   :     0.018397
      dxy     :     0.014015

  4 C s       :     2.850984  s :     2.850984
      pz      :     0.930705  p :     2.958619
      px      :     0.991075
      py      :     1.036839
      dz2     :     0.020258  d :     0.129559
      dxz     :     0.014200
      dyz     :     0.027146
      dx2y2   :     0.026918
      dxy     :     0.041037

  5 C s       :     2.875848  s :     2.875848
      pz      :     1.069596  p :     3.167097
      px      :     1.042529
      py      :     1.054972
      dz2     :     0.007804  d :     0.081697
      dxz     :     0.009390
      dyz     :     0.013893
      dx2y2   :     0.025766
      dxy     :     0.024843

  6 O s       :     3.543688  s :     3.543688
      pz      :     1.451978  p :     4.637501
      px      :     1.595648
      py      :     1.589875
      dz2     :     0.004531  d :     0.032310
      dxz     :     0.006834
      dyz     :     0.007035
      dx2y2   :     0.004514
      dxy     :     0.009395

  7 H s       :     0.875723  s :     0.875723
      pz      :     0.024195  p :     0.072098
      px      :     0.024349
      py      :     0.023554

  8 O s       :     3.544683  s :     3.544683
      pz      :     1.479039  p :     4.618199
      px      :     1.678822
      py      :     1.460338
      dz2     :     0.004273  d :     0.031682
      dxz     :     0.001492
      dyz     :     0.007083
      dx2y2   :     0.009673
      dxy     :     0.009162

  9 H s       :     0.770453  s :     0.770453
      pz      :     0.034065  p :     0.123725
      px      :     0.067303
      py      :     0.022357

 10 H s       :     0.770633  s :     0.770633
      pz      :     0.035562  p :     0.124710
      px      :     0.022541
      py      :     0.066608

 11 H s       :     0.886486  s :     0.886486
      pz      :     0.013845  p :     0.068166
      px      :     0.039627
      py      :     0.014694



                      *****************************
                      * MAYER POPULATION ANALYSIS *
                      *****************************

  NA   - Mulliken gross atomic population
  ZA   - Total nuclear charge
  QA   - Mulliken gross atomic charge
  VA   - Mayer's total valence
  BVA  - Mayer's bonded valence
  FA   - Mayer's free valence

  ATOM       NA         ZA         QA         VA         BVA        FA
  0 C      5.7610     6.0000     0.2390     4.2625     4.2625    -0.0000
  1 N      7.2303     7.0000    -0.2303     3.1063     3.1063     0.0000
  2 C      5.7357     6.0000     0.2643     4.3432     4.3432    -0.0000
  3 N      7.1982     7.0000    -0.1982     3.2459     3.2459    -0.0000
  4 C      5.8549     6.0000     0.1451     3.8796     3.8796     0.0000
  5 C      6.1891     6.0000    -0.1891     3.8500     3.8500     0.0000
  6 O      8.2439     8.0000    -0.2439     2.2780     2.2780    -0.0000
  7 H      0.9464     1.0000     0.0536     1.0036     1.0036     0.0000
  8 O      8.2370     8.0000    -0.2370     2.2779     2.2779    -0.0000
  9 H      0.8324     1.0000     0.1676     1.0086     1.0086     0.0000
 10 H      0.8323     1.0000     0.1677     0.9926     0.9926    -0.0000
 11 H      0.9389     1.0000     0.0611     0.9848     0.9848     0.0000

  Mayer bond orders larger than 0.100000
B(  0-C ,  1-N ) :   1.0235 B(  0-C ,  5-C ) :   1.0545 B(  0-C ,  8-O ) :   2.1042 
B(  1-N ,  2-C ) :   1.0922 B(  1-N ,  9-H ) :   0.9000 B(  2-C ,  3-N ) :   1.0443 
B(  2-C ,  6-O ) :   2.1220 B(  3-N ,  4-C ) :   1.1588 B(  3-N , 10-H ) :   0.9150 
B(  4-C ,  5-C ) :   1.6777 B(  4-C , 11-H ) :   0.9562 B(  5-C ,  7-H ) :   0.9731 


-------
TIMINGS
-------

Total SCF time: 0 days 0 hours 0 min 2 sec 

Total time                  ....       2.548 sec
Sum of individual times     ....       2.518 sec  ( 98.8%)

SCF preparation             ....       0.139 sec  (  5.5%)
Fock matrix formation       ....       2.308 sec  ( 90.6%)
  Startup                   ....       0.004 sec  (  0.2% of F)
  Split-RI-J                ....       0.092 sec  (  4.0% of F)
  Chain of spheres X        ....       1.743 sec  ( 75.5% of F)
  XC integration            ....       0.447 sec  ( 19.4% of F)
    Basis function eval.    ....       0.174 sec  ( 38.9% of XC)
    Density eval.           ....       0.065 sec  ( 14.6% of XC)
    XC-Functional eval.     ....       0.046 sec  ( 10.4% of XC)
    XC-Potential eval.      ....       0.077 sec  ( 17.2% of XC)
Diagonalization             ....       0.000 sec  (  0.0%)
Density matrix formation    ....       0.007 sec  (  0.3%)
Total Energy calculation    ....       0.007 sec  (  0.3%)
Population analysis         ....       0.018 sec  (  0.7%)
Orbital Transformation      ....       0.005 sec  (  0.2%)
Orbital Orthonormalization  ....       0.000 sec  (  0.0%)
DIIS solution               ....       0.007 sec  (  0.3%)
SOSCF solution              ....       0.026 sec  (  1.0%)
Finished LeanSCF after   2.6 sec

Maximum memory used throughout the entire LEANSCF-calculation: 20.0 MB


-------------------------------------------------------------------------------
                          DFT DISPERSION CORRECTION                            
                                                                               
                                DFTD4 V3.4.0                                   
-------------------------------------------------------------------------------
The PBE0 functional is recognized
Active option DFTDOPT                   ...         5   

-------------------------   ----------------
Dispersion correction           -0.009750613
-------------------------   ----------------


-------------------------   --------------------
FINAL SINGLE POINT ENERGY      -414.081271608623
-------------------------   --------------------

                                *** OPTIMIZATION RUN DONE ***



           ************************************************************
           *        Program running with 16 parallel MPI-processes    *
           *              working on a common directory               *
           ************************************************************

------------------------------------------------------------------------------
                              ORCA PROPERTY CALCULATIONS
------------------------------------------------------------------------------

GBWName                                 ... /dev/shm/3470106/uracil_s0.inp-3470106/uracil_s0.gbw
Number of atoms                         ...     12
Number of basis functions               ...    132
Max core memory                         ...   2000 MB

Electric properties:
Dipole moment                           ... YES
Quadrupole moment                       ...  NO
Static polarizability (Dipole/Dipole)   ...  NO
Static polarizability (Dipole/Quad.)    ...  NO
Static polarizability (Quad./Quad.)     ...  NO
Static polarizability (Velocity)        ...  NO

Atomic electric properties:
Dipole moment                           ...  NO
Quadrupole moment                       ...  NO
Static polarizability                   ...  NO

Choice of electric origin               ... Center of mass
Position of electric origin             ...     1.174538    -0.429507     0.170705

General magnetic properties:
Magnetizability                         ...  NO

EPR properties:
g-Tensor (aka g-matrix)                 ...  NO
Zero-Field splitting spin-orbit         ...  NO
Zero-field splitting spin-spin          ...  NO
Hyperfine couplings                     ...  NO (   0 nuclei)
Quadrupole couplings                    ...  NO (   0 nuclei)
Contact density                         ...  NO (   0 nuclei)

NMR properties:
Chemical shifts                         ...  NO (   0 nuclei)
Spin-rotation constants                 ...  NO (   0 nuclei)
Spin-spin couplings                     ...  NO (   0 nuclei,    0 pairs)

Choice of magnetic origin               ... GIAO
Position of magnetic origin             ...     0.000000     0.000000     0.000000

Properties with geometric perturbations:
SCF Hessian                             ...  NO
IR spectrum                             ...  NO
VCD spectrum                            ...  NO
X-ray spectroscopy properties:
SCF XES/XAS/RIXS spectra                ...  NO


-------------
DIPOLE MOMENT
-------------

Method             : SCF
Type of density    : Electron Density
Multiplicity       :   1
Irrep              :   0
Energy             :  -414.0715209954800002 Eh
Relativity type    : 
Basis              : AO
                                X                 Y                 Z
Electronic contribution:      2.097447348       0.168255246      -0.798834795
Nuclear contribution   :     -3.464089905      -1.106846415       0.985092744
                        -----------------------------------------
Total Dipole Moment    :     -1.366642557      -0.938591169       0.186257949
                        -----------------------------------------
Magnitude (a.u.)       :      1.668339679
Magnitude (Debye)      :      4.240582460



--------------------
Rotational spectrum 
--------------------
 
Rotational constants in cm-1:             0.130127             0.067574             0.044477 
Rotational constants in MHz :          3901.109384          2025.805023          1333.389791 

Dipole components along the rotational axes: 
x,y,z [a.u.] :    -0.552511    -1.574195     0.000304 
x,y,z [Debye]:    -1.404372    -4.001285     0.000772 

 

Dipole moment calculation done in   0.0 sec 

Maximum memory used throughout the entire PROP-calculation: 6.9 MB

--------------------------------
SUGGESTED CITATIONS FOR THIS RUN
--------------------------------

Below you find a list of papers that are relevant to this ORCA run
We neither can nor want to force you to cite these papers, but we appreciate if you do
You receive ORCA, which is the product of decades of hard work by many enthusiastic individuals, for free
The only thing we kindly ask in return is that you cite our papers,
We deeply appreciate it, if you show your appreciation for ORCA by not just citing the generic ORCA reference.

Please note that relegating all ORCA citations to the supporting information does *not* help us.
SI sections are not indexed - citations you put there will not count into any citation statistics
But we need these citations in order to attract the funding resources that allow us to do what we are doing

Therefore, if you are a happy ORCA user, please consider citing a few of the papers listed below in the main body of your paper

In addition to the list printed below, the program has created the file /dev/shm/3470106/uracil_s0.inp-3470106/uracil_s0.bibtex that contains the list in bibtex format
You can import this file easily into all common literature databanks and citation aid programs


List of essential papers. We consider these as the minimum necessary citations

  1. Neese,F.
     Software update: the ORCA program system, version 5.0
     WIRES Comput. Molec. Sci., 2022 12(1)e1606
     doi.org/10.1002/wcms.1606

List of papers to cite with high priority. The work reported in these papers was absolutely
necessary for this run to complete.
Our perspective: the developers of density functionals and basis sets usually get cited in chemistry papers
Good! But without the algorithms to do something with them, the functionals or basis sets would not do anything.
Hence, in our opinion, the algorithm design and method developments papers are equally worthy of getting cited

  1. Neese,F.
     An improvement of the resolution of the identity approximation for the formation of the Coulomb matrix
     J. Comp. Chem., 2003 24(14)1740-1747
     doi.org/10.1002/jcc.10318
  2. Neese,F.; Wennmohs,F.; Hansen,A.; Becker,U.
     Efficient, approximate and parallel Hartree-Fock and hybrid DFT calculations. A 'chain-of-spheres' algorithm for the Hartree-Fock exchange
     Chem. Phys., 2009 356(1-3)98-109
     doi.org/10.1016/j.chemphys.2008.10.036
  3. Helmich-Paris,B.; de Souza,B.; Neese,F.; Izsák,R.
     An improved chain of spheres for exchange algorithm
     J. Chem. Phys., 2021 155 104109
     doi.org/doi: 10.1063/5.0058766.
  4. Neese,F.
     The SHARK Integral Generation and Digestion System
     J. Comp. Chem., 2022  1-16
     doi.org/10.1002/jcc.26942
  5. Caldeweyher,E.; Bannwarth,C.; Grimme,S.
     Extension of the D3 dispersion coefficient model
     J. Chem. Phys., 2017 147 034112
     doi.org/10.1063/1.4993215
  6. Caldeweyher,E.; Ehlert,S.; Hansen,A.; Neugebauer,H.; Spicher,S.; Bannwarth,C.; Grimme,S.
     A generally applicable atomic-charge dependent London dispersion correction
     J. Chem. Phys., 2019 150 154122
     doi.org/10.1063/1.5090222
  7. Caldeweyher,E.; Mewes,J.; Ehlert,S.; Grimme,S.
     Extension and evaluation of the D4 London-dispersion model for periodic systems
     Phys. Chem. Chem. Phys., 2020 22(16)8499-8512
     doi.org/10.1039/D0CP00502A
  8. Wittmann,L.; Gordiy,I.; Friede,M.; Helmich-Paris,B.; Grimme,S.; Hansen,A.; Bursch,M.
     Extension of the D3 and D4 London Dispersion Corrections to the full Actinides Series
     Phys. Chem. Chem. Phys., 2024 26(32)21379-21394
     doi.org/https://doi.org/10.1039/D4CP01514B 

List of suggested additional citations. These are papers that are important in the 'surrounding' of 
of this run, or papers that preceded the highly important papers. If you like your results we are grateful for a citation.

  1. Izsak,R.; Neese,F.
     An overlap fitted chain of spheres exchange method
     J. Chem. Phys., 2011 135 144105
     doi.org/10.1063/1.3646921
  2. Izsak,R.; Hansen,A.; Neese,F.
     The resolution of identity and chain of spheres approximations for the LPNO-CCSD singles Fock term
     Molec. Phys., 2012 110 2413-2417
     doi.org/10.1080/00268976.2012.687466
  3. Neese,F.
     The ORCA program system
     WIRES Comput. Molec. Sci., 2012 2(1)73-78
     doi.org/10.1002/wcms.81
  4. Izsak,R.; Neese,F.; Klopper,W.
     Robust fitting techniques in the chain of spheres approximation to the Fock exchange: The role of the complementary space
     J. Chem. Phys., 2013 139 
     doi.org/10.1063/1.4819264
  5. Neese,F.
     Software update: the ORCA program system, version 4.0
     WIRES Comput. Molec. Sci., 2018 8(1)1-6
     doi.org/10.1002/wcms.1327
  6. Neese,F.; Wennmohs,F.; Becker,U.; Riplinger,C.
     The ORCA quantum chemistry program package
     J. Chem. Phys., 2020 152 Art. No. L224108
     doi.org/10.1063/5.0004608

List of optional additional citations

  1. Neese,F.
     Approximate second-order SCF convergence for spin unrestricted wavefunctions
     Chem. Phys. Lett., 2000 325(1-3)93-98
     doi.org/10.1016/s0009-2614(00)00662-x

Timings for individual modules:

Sum of individual times          ...       62.460 sec (=   1.041 min)
Startup calculation              ...       16.401 sec (=   0.273 min)  26.3 %
SCF iterations                   ...       28.586 sec (=   0.476 min)  45.8 %
Property calculations            ...        0.295 sec (=   0.005 min)   0.5 %
SCF Gradient evaluation          ...       17.144 sec (=   0.286 min)  27.4 %
Geometry relaxation              ...        0.035 sec (=   0.001 min)   0.1 %
                             ****ORCA TERMINATED NORMALLY****
TOTAL RUN TIME: 0 days 0 hours 1 minutes 4 seconds 603 msec
