
                                 *****************
                                 * O   R   C   A *
                                 *****************

                                            #,                                       
                                            ###                                      
                                            ####                                     
                                            #####                                    
                                            ######                                   
                                           ########,                                 
                                     ,,################,,,,,                         
                               ,,#################################,,                 
                          ,,##########################################,,             
                       ,#########################################, ''#####,          
                    ,#############################################,,   '####,        
                  ,##################################################,,,,####,       
                ,###########''''           ''''###############################       
              ,#####''   ,,,,##########,,,,          '''####'''          '####       
            ,##' ,,,,###########################,,,                        '##       
           ' ,,###''''                  '''############,,,                           
         ,,##''                                '''############,,,,        ,,,,,,###''
      ,#''                                            '''#######################'''  
     '                                                          ''''####''''         
             ,#######,   #######,   ,#######,      ##                                
            ,#'     '#,  ##    ##  ,#'     '#,    #''#        ,####,   ,####,        
            ##       ##  ##   ,#'  ##            #'  '#       #'       #'  '#        
            ##       ##  #######   ##           ,######,      #####,   #    #        
            '#,     ,#'  ##    ##  '#,     ,#' ,#      #,     #,   #   #,  ,#        
             '#######'   ##     ##  '#######'  #'      '#     '####' # '####'        



                #########################################################
                #                        -***-                          #
                #          Department of theory and spectroscopy        #
                #                                                       #
                #                      Frank Neese                      #
                #                                                       #
                #     Directorship, Architecture, Infrastructure        #
                #                    SHARK, DRIVERS                     #
                #        Core code/Algorithms in most modules           #
                #                                                       #
                #        Max Planck Institute fuer Kohlenforschung      #
                #                Kaiser Wilhelm Platz 1                 #
                #                 D-45470 Muelheim/Ruhr                 #
                #                      Germany                          #
                #                                                       #
                #                  All rights reserved                  #
                #                        -***-                          #
                #########################################################


                         Program Version 6.0.1  -  RELEASE   -


 With contributions from (in alphabetic order):
[Max-Planck-Institut fuer Kohlenforschung]                               
  Daniel Aravena         : Magnetic Suceptibility                        
  Michael Atanasov       : Ab Initio Ligand Field Theory (pilot matlab implementation)
  Alexander A. Auer      : GIAO ZORA, VPT2 properties, NMR spectrum      
  Ute Becker             : All parallelization in ORCA, NUMFREQ, NUMCALC 
  Giovanni Bistoni       : ED, misc. LED, open-shell LED, HFLD           
  Martin Brehm           : Molecular dynamics                            
  Dmytro Bykov           : pre 5.0 version of the SCF Hessian            
  Marcos Casanova-Páez   : Triplet and SCS-CIS(D). UHF-(DLPNO)-IP/EA/STEOM-CCSD. UHF-CVS-IP/STEOM-CCSD   
  Vijay G. Chilkuri      : MRCI spin determinant printing, contributions to CSF-ICE 
  Pauline Colinet        : FMM embedding                                 
  Dipayan Datta          : RHF DLPNO-CCSD density                        
  Achintya Kumar Dutta   : EOM-CC, STEOM-CC                              
  Nicolas Foglia         : Exact transition moments, OPA infrastructure, MCD improvements    
  Dmitry Ganyushin       : Spin-Orbit,Spin-Spin,Magnetic field MRCI      
  Miquel Garcia-Rates    : C-PCM and meta-GGA Hessian, CCSD/C-PCM, Gaussian charge scheme 
  Tiago L. C. Gouveia    : GS-ROHF, GS-ROCIS                             
  Yang Guo               : DLPNO-NEVPT2, F12-NEVPT2, CIM, IAO-localization        
  Andreas Hansen         : Spin unrestricted coupled pair/coupled cluster methods 
  Ingolf Harden          : AUTO-CI MPn and infrastructure                
  Benjamin Helmich-Paris : MC-RPA, TRAH-(SCF,CASSCF), AVAS, COSX integrals, SCF dyn. polar. 
  Lee Huntington         : MR-EOM, pCC                                   
  Robert Izsak           : Overlap fitted RIJCOSX, COSX-SCS-MP3, EOM     
  Riya Kayal             : Wick's Theorem for AUTO-CI, AUTO-CI UHF-CCSDT 
  Emily Kempfer          : AUTO-CI, RHF CISDT and CCSDT                  
  Christian Kollmar      : KDIIS, OOCD, Brueckner-CCSD(T), CCSD density, CASPT2, CASPT2-K, improved NEVPT2 
  Axel Koslowski         : Symmetry handling                             
  Simone Kossmann        : meta-GGA functionals, TD-DFT gradient, OOMP2, (MP2 Hessian; deprecated post 5.0) 
  Lucas Lang             : DCDCAS                                        
  Marvin Lechner         : AUTO-CI (C++ implementation), FIC-MRCC        
  Spencer Leger          : CASSCF response                               
  Dagmar Lenk            : GEPOL surface, SMD, ORCA-2-JSON               
  Dimitrios Liakos       : Extrapolation schemes; Compound Job, initial MDCI parallelization 
  Dimitrios Manganas     : Further ROCIS development; embedding schemes. LFT, Crystal Embedding 
  Dimitrios Pantazis     : SARC Basis sets                               
  Anastasios Papadopoulos: AUTO-CI, single reference methods and gradients 
  Taras Petrenko         : pre 6.0 DFT Hessian and TD-DFT gradient, (ASA, deprecated), ECA, 1-Electron XAS/XES, NRVS 
  Peter Pinski           : DLPNO-MP2, DLPNO-MP2 Gradient                 
  Christoph Reimann      : Effective Core Potentials                     
  Marius Retegan         : Local ZFS, SOC                                
  Christoph Riplinger    : Optimizer, TS searches, QM/MM, DLPNO-CCSD(T), (RO)-DLPNO pert. Triples 
  Michael Roemelt        : Original ROCIS implementation                 
  Masaaki Saitow         : Open-shell DLPNO-CCSD energy and density      
  Barbara Sandhoefer     : DKH picture change effects                    
  Kantharuban Sivalingam : CASSCF convergence/infrastructure, NEVPT2 and variants, FIC-MRCI 
  Bernardo de Souza      : ESD, SOC TD-DFT                               
  Georgi L. Stoychev     : AutoAux, RI-MP2 NMR, DLPNO-MP2 response, X2C  
  Van Anh Tran           : RI-MP2 g-tensors                              
  Willem Van den Heuvel  : Paramagnetic NMR                              
  Zikuan Wang            : NOTCH, Electric field optimization            
  Frank Wennmohs         : Technical directorship and infrastructure     
  Hang Xu                : AUTO-CI-Response properties                   
                                                                         
[FACCTs GmbH]                                                            
  Markus Bursch, Miquel Garcia-Rates, Christoph Riplinger, Bernardo de Souza, Georgi L. Stoychev 
                                                                 
  APM, Basis sets (HGBS, AHGBS, def-TZVP (Ac-Lr), def2-XVPD (La-Lu)), CI-OPT, improved COSX, DLPNO-Multilevel,           
  DOCKER, DRACO, updates on ESD, GOAT, IRC, LR-CPCM, MBIS, meta-GGA TD-DFT gradient, ML-optimized integration grids, 
  MM, NACMEs, nearIR, NEB, NEB-TS, NL-DFT gradient (VV10), 2- and 3-layer-ONIOM, interface openCOSMO-RS, QMMM,   
  Crystal-QMMM, SF, symmetry and pop. for TD-DFT, r2SCAN hybrids, SOLVATOR                                   
                                                                         
[Other institutions]                                                     
  V. Asgeirsson          : NEB                                           
  Christoph Bannwarth    : sTDA-DFT, sTD-DFT, PBEh-3c, B97-3c, D3        
  Sebastian Ehlert       : rSCAN, r2SCAN, r2SCAN-3c, D4, dhf basis sets  
  Marvin Friede          : D4 for Fr, Ra, Ac-Lr                          
  Lars Goerigk           : TD-DFT with DH, B97 family of functionals     
  Stefan Grimme          : VdW corrections, initial TS optimization, DFT functionals, gCP, sTDA/sTD-DF 
  Waldemar Hujo          : DFT-NL                                        
  H. Jonsson             : NEB                                           
  Holger Kruse           : gCP                                           
  Marcel Mueller         : wB97X-3c, vDZP basis set                      
  Hagen Neugebauer       : wr2SCAN                                       
  Tobias Risthaus        : range-separated hybrid DFT                    
  Lukas Wittmann         : regularized MP2, r2SCAN double-hybrids, wr2SCAN        
                                                                         
We gratefully acknowledge several colleagues who have allowed us to      
interface, adapt or use parts of their codes:                            
  Ed Valeev, F. Pavosevic, A. Kumar             : LibInt (2-el integral package), F12 methods 
  Garnet Chan, S. Sharma, J. Yang, R. Olivares  : DMRG                   
  Ulf Ekstrom                                   : XCFun DFT Library      
  Mihaly Kallay                                 : mrcc  (arbitrary order and MRCC methods)
  Frank Weinhold                                : gennbo (NPA and NBO analysis)           
  Simon Mueller                                 : openCOSMO-RS                            
  Christopher J. Cramer and Donald G. Truhlar   : smd solvation model                     
  S Lehtola, MJT Oliveira, MAL Marques          : LibXC Library                           
  Liviu Ungur et al                             : ANISO software                          


 Your calculation uses the libint2 library for the computation of 2-el integrals
 For citations please refer to: http://libint.valeyev.net

 Your ORCA version has been built with support for libXC version: 6.2.2
 For citations please refer to: https://libxc.gitlab.io

 This ORCA versions uses:
   CBLAS   interface :  Fast vector & matrix operations
   LAPACKE interface :  Fast linear algebra routines
   SCALAPACK package :  Parallel linear algebra routines
   Shared memory     :  Shared parallel matrices
   BLAS/LAPACK       :  OpenBLAS 0.3.27  USE64BITINT DYNAMIC_ARCH NO_AFFINITY SkylakeX SINGLE_THREADED
        Core in use  :  SkylakeX
   Copyright (c) 2011-2014, The OpenBLAS Project


NOTE: MaxCore=2000 MB was set to SCF,MP2,MDCI,CIPSI,MRCI and CIS
      => If you want to overwrite this, your respective input block should be placed after the MaxCore statement


***************************************
The coordinates will be read from file: uracil_s0.xyz
***************************************


Your calculation utilizes the atom-pairwise dispersion correction
based on EEQ partial charges (D4)


================================================================================

----- Orbital basis set information -----
Your calculation utilizes the basis: def2-SVP
   F. Weigend and R. Ahlrichs, Phys. Chem. Chem. Phys. 7, 3297 (2005).

----- AuxJ basis set information -----
Your calculation utilizes the auxiliary basis: def2/J
   F. Weigend, Phys. Chem. Chem. Phys. 8, 1057 (2006).

================================================================================
                                        WARNINGS
                       Please study these warnings very carefully!
================================================================================

INFO   : Checking CIS options ...

WARNING: CIS/ROCIS methods need fully converged wavefunctions
  ===> : Setting SCFConvForced true
         You can overwrite this default with %scf ConvForced false 

ORCA_ESD: Ajusting IROOT to the first root given by the STATES flag

================================================================================
                                       INPUT FILE
================================================================================
NAME = /dev/shm/3472866/uracil_s0_vg.inp-3472866/uracil_s0_vg.inp
|  1> %pal nprocs 16 end
|  2> %maxcore 2000
|  3> ! pbe0 d4 def2-SVP RIJCOSX Def2/J defgrid3 TightSCF ESD(ABS)
|  4> 
|  5> %tddft 
|  6>     TDA true # TDA approx
|  7>     NRoots 3 # number of electronic states
|  8> end
|  9> 
| 10> %ESD
| 11>   GSHESSIAN  "uracil_s0_freq.hess"
| 12>   DOHT       TRUE
| 13>   STATES     1,2
| 14>   UNIT       NM
| 15>   HESSFLAG   VG
| 16>   LINEW      50
| 17>   INLINEW    150
| 18>   LINES      GAUSS
| 19>   SPECRANGE  10000,50000
| 20>   UNIT       NM
| 21>   PRINTLEVEL HIGH
| 22>   USEJ       FALSE
| 23>   COORDSYS   INT
| 24> END
| 25> 
| 26> * xyzfile 0 1 uracil_s0.xyz 
| 27> 
| 28> 
| 29>                          ****END OF INPUT****
================================================================================

                       ****************************
                       * Single Point Calculation *
                       ****************************

The geometry is being displaced to its center of mass!
---------------------------------
CARTESIAN COORDINATES (ANGSTROEM)
---------------------------------
  C      0.092584    1.239510    0.463342
  N      0.866533    0.300465   -0.236813
  C      0.529057   -0.980289   -0.615272
  N     -0.755574   -1.336301   -0.227611
  C     -1.597854   -0.505489    0.456647
  C     -1.234936    0.745173    0.812065
  O      1.259436   -1.727230   -1.219560
  H     -1.904175    1.408123    1.356680
  O      0.537865    2.334103    0.720932
  H      1.799801    0.602003   -0.501131
  H     -1.037468   -2.272549   -0.489633
  H     -2.579506   -0.920849    0.694678

----------------------------
CARTESIAN COORDINATES (A.U.)
----------------------------
  NO LB      ZA    FRAG     MASS         X           Y           Z
   0 C     6.0000    0    12.011    0.174959    2.342334    0.875589
   1 N     7.0000    0    14.007    1.637510    0.567797   -0.447512
   2 C     6.0000    0    12.011    0.999773   -1.852478   -1.162696
   3 N     7.0000    0    14.007   -1.427827   -2.525243   -0.430122
   4 C     6.0000    0    12.011   -3.019506   -0.955235    0.862937
   5 C     6.0000    0    12.011   -2.333691    1.408172    1.534580
   6 O     8.0000    0    15.999    2.379988   -3.263993   -2.304635
   7 H     1.0000    0     1.008   -3.598370    2.660967    2.563754
   8 O     8.0000    0    15.999    1.016418    4.410815    1.362364
   9 H     1.0000    0     1.008    3.401130    1.137620   -0.947001
  10 H     1.0000    0     1.008   -1.960531   -4.294495   -0.925272
  11 H     1.0000    0     1.008   -4.874560   -1.740152    1.312752

--------------------------------
INTERNAL COORDINATES (ANGSTROEM)
--------------------------------
 C      0   0   0     0.000000000000     0.00000000     0.00000000
 N      1   0   0     1.403929725867     0.00000000     0.00000000
 C      2   1   0     1.377480638317   128.59865324     0.00000000
 N      3   2   1     1.388272849493   112.85617750     0.00000000
 C      4   3   2     1.366709022704   123.65493506     0.00000000
 C      5   4   3     1.349883444937   121.96108359     0.00000000
 O      3   2   1     1.206871074571   124.38481712   180.00613626
 H      6   5   4     1.088113020049   122.06694377   179.98883527
 O      1   2   3     1.209446514432   120.57096672   180.04511452
 H      2   1   3     1.015764470077   115.95811480   179.99478624
 H      4   3   2     1.012265159608   114.99838727   180.00376101
 H      5   4   3     1.092164911805   115.58522491   179.98572930

---------------------------
INTERNAL COORDINATES (A.U.)
---------------------------
 C      0   0   0     0.000000000000     0.00000000     0.00000000
 N      1   0   0     2.653042693160     0.00000000     0.00000000
 C      2   1   0     2.603061161198   128.59865324     0.00000000
 N      3   2   1     2.623455484700   112.85617750     0.00000000
 C      4   3   2     2.582705757669   123.65493506     0.00000000
 C      5   4   3     2.550910023645   121.96108359     0.00000000
 O      3   2   1     2.280655809890   124.38481712   180.00613626
 H      6   5   4     2.056235610647   122.06694377   179.98883527
 O      1   2   3     2.285522685902   120.57096672   180.04511452
 H      2   1   3     1.919516665014   115.95811480   179.99478624
 H      4   3   2     1.912903926570   114.99838727   180.00376101
 H      5   4   3     2.063892576390   115.58522491   179.98572930

---------------------
BASIS SET INFORMATION
---------------------
There are 4 groups of distinct atoms

 Group   1 Type C   : 7s4p1d contracted to 3s2p1d pattern {511/31/1}
 Group   2 Type N   : 7s4p1d contracted to 3s2p1d pattern {511/31/1}
 Group   3 Type O   : 7s4p1d contracted to 3s2p1d pattern {511/31/1}
 Group   4 Type H   : 4s1p contracted to 2s1p pattern {31/1}

Atom   0C    basis set group =>   1
Atom   1N    basis set group =>   2
Atom   2C    basis set group =>   1
Atom   3N    basis set group =>   2
Atom   4C    basis set group =>   1
Atom   5C    basis set group =>   1
Atom   6O    basis set group =>   3
Atom   7H    basis set group =>   4
Atom   8O    basis set group =>   3
Atom   9H    basis set group =>   4
Atom  10H    basis set group =>   4
Atom  11H    basis set group =>   4
---------------------------------
AUXILIARY/J BASIS SET INFORMATION
---------------------------------
There are 4 groups of distinct atoms

 Group   1 Type C   : 12s5p4d2f1g contracted to 6s4p3d1f1g pattern {711111/2111/211/2/1}
 Group   2 Type N   : 12s5p4d2f1g contracted to 6s4p3d1f1g pattern {711111/2111/211/2/1}
 Group   3 Type O   : 12s5p4d2f1g contracted to 6s4p3d1f1g pattern {711111/2111/211/2/1}
 Group   4 Type H   : 5s2p1d contracted to 3s1p1d pattern {311/2/1}

Atom   0C    basis set group =>   1
Atom   1N    basis set group =>   2
Atom   2C    basis set group =>   1
Atom   3N    basis set group =>   2
Atom   4C    basis set group =>   1
Atom   5C    basis set group =>   1
Atom   6O    basis set group =>   3
Atom   7H    basis set group =>   4
Atom   8O    basis set group =>   3
Atom   9H    basis set group =>   4
Atom  10H    basis set group =>   4
Atom  11H    basis set group =>   4


           ************************************************************
           *        Program running with 16 parallel MPI-processes    *
           *              working on a common directory               *
           ************************************************************
------------------------------------------------------------------------------
                             ORCA STARTUP CALCULATIONS
                           -- RI-GTO INTEGRALS CHOSEN --
------------------------------------------------------------------------------
------------------------------------------------------------------------------
                   ___                                                        
                  /   \      - P O W E R E D   B Y -                         
                 /     \                                                     
                 |  |  |   _    _      __       _____    __    __             
                 |  |  |  | |  | |    /  \     |  _  \  |  |  /  |          
                  \  \/   | |  | |   /    \    | | | |  |  | /  /          
                 / \  \   | |__| |  /  /\  \   | |_| |  |  |/  /          
                |  |  |   |  __  | /  /__\  \  |    /   |      \           
                |  |  |   | |  | | |   __   |  |    \   |  |\   \          
                \     /   | |  | | |  |  |  |  | |\  \  |  | \   \       
                 \___/    |_|  |_| |__|  |__|  |_| \__\ |__|  \__/        
                                                                              
                      - O R C A' S   B I G   F R I E N D -                    
                                      &                                       
                       - I N T E G R A L  F E E D E R -                       
                                                                              
 v1 FN, 2020, v2 2021, v3 2022-2024                                           
------------------------------------------------------------------------------


----------------------
SHARK INTEGRAL PACKAGE
----------------------

Number of atoms                             ...     12
Number of basis functions                   ...    132
Number of shells                            ...     60
Maximum angular momentum                    ...      2
Integral batch strategy                     ... SHARK/LIBINT Hybrid
RI-J (if used) integral strategy            ... SPLIT-RIJ (Revised 2003 algorithm where possible)
Printlevel                                  ...      1
Contraction scheme used                     ... SEGMENTED contraction
Prescreening option                         ... SCHWARTZ
   Thresh                                   ... 2.500e-11
   Tcut                                     ... 2.500e-12
   Tpresel                                  ... 2.500e-12 
Coulomb Range Separation                    ... NOT USED
Exchange Range Separation                   ... NOT USED
Multipole approximations                    ... NOT USED
Finite Nucleus Model                        ... NOT USED
CABS basis                                  ... NOT available
Auxiliary Coulomb fitting basis             ... AVAILABLE
   # of basis functions in Aux-J            ...    436
   # of shells in Aux-J                     ...    140
   Maximum angular momentum in Aux-J        ...      4
Auxiliary J/K fitting basis                 ... NOT available
Auxiliary Correlation fitting basis         ... NOT available
Auxiliary 'external' fitting basis          ... NOT available

Checking pre-screening integrals            ... done (  0.0 sec) Dimension = 60
Check shell pair data                       ... done (  0.0 sec)
Shell pair information
Shell pair cut-off parameter TPreSel        ...   2.5e-12
Total number of shell pairs                 ...      1830
Shell pairs after pre-screening             ...      1737
Total number of primitive shell pairs       ...      6902
Primitive shell pairs kept                  ...      4908
          la=0 lb=0:    493 shell pairs
          la=1 lb=0:    613 shell pairs
          la=1 lb=1:    204 shell pairs
          la=2 lb=0:    238 shell pairs
          la=2 lb=1:    154 shell pairs
          la=2 lb=2:     35 shell pairs

Calculating one electron integrals          ... done (  0.0 sec)
Calculating RI/J V-Matrix + Cholesky decomp.... done (  0.0 sec)
Calculating Nuclear repulsion               ... done (  0.0 sec) ENN=    357.255993145297 Eh

Diagonalization of the overlap matrix:
Smallest eigenvalue                        ... 1.281e-03
Time for diagonalization                   ...    0.002 sec
Threshold for overlap eigenvalues          ... 1.000e-07
Number of eigenvalues below threshold      ... 0
Time for construction of square roots      ...    0.001 sec
Total time needed                          ...    0.003 sec

-------------------
DFT GRID GENERATION
-------------------

General Integration Accuracy     IntAcc      ... 4.959
Radial Grid Type                 RadialGrid  ... OptM3 with GC (2021)
Angular Grid (max. ang.)         AngularGrid ... 6 (Lebedev-590)
Angular grid pruning method      GridPruning ... 4 (adaptive)
Weight generation scheme         WeightScheme... mBecke (2022)
Basis function cutoff            BFCut       ... 1.0000e-11
Integration weight cutoff        WCut        ... 1.0000e-14
Partially contracted basis set               ... off
Rotationally invariant grid construction     ... off
Angular grids for H and He will be reduced by one unit

Total number of grid points                  ...   150041
Total number of batches                      ...     2351
Average number of points per batch           ...       63
Average number of grid points per atom       ...    12503

--------------------
COSX GRID GENERATION
--------------------

GRIDX 1
-------
General Integration Accuracy     IntAcc      ... 4.020
Radial Grid Type                 RadialGrid  ... OptM3 with GC (2021)
Angular Grid (max. ang.)         AngularGrid ... 2 (Lebedev-110)
Angular grid pruning method      GridPruning ... 4 (adaptive)
Weight generation scheme         WeightScheme... mBecke (2022)
Basis function cutoff            BFCut       ... 1.0000e-11
Integration weight cutoff        WCut        ... 1.0000e-14
Partially contracted basis set               ... on
Rotationally invariant grid construction     ... off
Angular grids for H and He will be reduced by one unit

Total number of grid points                  ...    17603
Total number of batches                      ...      145
Average number of points per batch           ...      121
Average number of grid points per atom       ...     1467
UseSFitting                                  ... on

GRIDX 2
-------
General Integration Accuracy     IntAcc      ... 4.338
Radial Grid Type                 RadialGrid  ... OptM3 with GC (2021)
Angular Grid (max. ang.)         AngularGrid ... 3 (Lebedev-194)
Angular grid pruning method      GridPruning ... 4 (adaptive)
Weight generation scheme         WeightScheme... mBecke (2022)
Basis function cutoff            BFCut       ... 1.0000e-11
Integration weight cutoff        WCut        ... 1.0000e-14
Partially contracted basis set               ... on
Rotationally invariant grid construction     ... off
Angular grids for H and He will be reduced by one unit

Total number of grid points                  ...    38998
Total number of batches                      ...      312
Average number of points per batch           ...      124
Average number of grid points per atom       ...     3250
UseSFitting                                  ... on

GRIDX 3
-------
General Integration Accuracy     IntAcc      ... 4.871
Radial Grid Type                 RadialGrid  ... OptM3 with GC (2021)
Angular Grid (max. ang.)         AngularGrid ... 4 (Lebedev-302)
Angular grid pruning method      GridPruning ... 4 (adaptive)
Weight generation scheme         WeightScheme... mBecke (2022)
Basis function cutoff            BFCut       ... 1.0000e-11
Integration weight cutoff        WCut        ... 1.0000e-14
Partially contracted basis set               ... on
Rotationally invariant grid construction     ... off
Angular grids for H and He will be reduced by one unit

Total number of grid points                  ...    72160
Total number of batches                      ...      569
Average number of points per batch           ...      126
Average number of grid points per atom       ...     6013
UseSFitting                                  ... on
Initializing property integral containers    ... done (  0.0 sec)

SHARK setup successfully completed in   1.8 seconds

Maximum memory used throughout the entire STARTUP-calculation: 31.1 MB


           ************************************************************
           *        Program running with 16 parallel MPI-processes    *
           *              working on a common directory               *
           ************************************************************
-------------------------------------------------------------------------------
                                 ORCA GUESS
                   Start orbitals & Density for SCF / CASSCF
-------------------------------------------------------------------------------

------------
SCF SETTINGS
------------
Hamiltonian:
 Density Functional     Method          .... DFT(GTOs)
 Exchange Functional    Exchange        .... PBE
   PBE kappa parameter   XKappa         ....  0.804000
   PBE mue parameter    XMuePBE         ....  0.219520
 Correlation Functional Correlation     .... PBE
   PBE beta parameter  CBetaPBE         ....  0.066725
 LDA part of GGA corr.  LDAOpt          .... PW91-LDA
 Gradients option       PostSCFGGA      .... off
 Hybrid DFT is turned on
   Fraction HF Exchange ScalHFX         ....  0.250000
   Scaling of DF-GGA-X  ScalDFX         ....  0.750000
   Scaling of DF-GGA-C  ScalDFC         ....  1.000000
   Scaling of DF-LDA-C  ScalLDAC        ....  1.000000
   Perturbative correction              ....  0.000000
   NL short-range parameter             ....  6.900000
 RI-approximation to the Coulomb term is turned on
   Number of AuxJ basis functions       .... 436
   RIJ-COSX (HFX calculated with COS-X)).... on


General Settings:
 Integral files         IntName         .... /dev/shm/3472866/uracil_s0_vg.inp-3472866/uracil_s0_vg
 Hartree-Fock type      HFTyp           .... RHF
 Total Charge           Charge          ....    0
 Multiplicity           Mult            ....    1
 Number of Electrons    NEL             ....   58
 Basis Dimension        Dim             ....  132
 Nuclear Repulsion      ENuc            ....    357.2559931453 Eh

Convergence Acceleration:
 AO-DIIS                CNVDIIS         .... on
   Start iteration      DIISMaxIt       ....    12
   Startup error        DIISStart       ....  0.200000
   # of expansion vecs  DIISMaxEq       ....     5
   Bias factor          DIISBfac        ....   1.050
   Max. coefficient     DIISMaxC        ....  10.000
 MO-DIIS                CNVKDIIS        .... off
 Trust-Rad. Augm. Hess. CNVTRAH         .... auto
   Auto Start mean grad. ratio tolernc. ....  1.125000
   Auto Start start iteration           ....    50
   Auto Start num. interpolation iter.  ....    10
   Max. Number of Micro iterations      ....    24
   Max. Number of Macro iterations      .... Maxiter - #DIIS iter
   Number of Davidson start vectors     ....     2
   Converg. threshold    (grad. norm)   ....   1.000e-05
   Grad. Scal. Fac. for Micro threshold ....   0.100
   Minimum threshold for Micro iter.    ....   1.000e-02
   NR start threshold (gradient norm)   ....   1.000e-04
   Initial trust radius                 ....   0.400
   Minimum AH scaling param. (alpha)    ....   1.000
   Maximum AH scaling param. (alpha)    .... 1000.000
   Quad. conv. algorithm                .... NR
   White noise on init. David. guess    .... on
   Maximum white noise                  ....   0.010
   Pseudo random numbers                .... off
   Inactive MOs                         .... canonical
   Orbital update algorithm             .... Taylor
   Preconditioner                       .... Diag
   Full preconditioner red. dimension   ....   250
 SOSCF                  CNVSOSCF        .... on
   Start iteration      SOSCFMaxIt      ....   150
   Startup grad/error   SOSCFStart      ....  0.003300
   Hessian update       SOSCFHessUp     .... L-BFGS
 Level Shifting         CNVShift        .... on
   Level shift para.    LevelShift      ....    0.2500
   Turn off err/grad.   ShiftErr        ....    0.0010
 Zerner damping         CNVZerner       .... off
 Static damping         CNVDamp         .... on
   Fraction old density DampFac         ....    0.7000
   Max. Damping (<1)    DampMax         ....    0.9800
   Min. Damping (>=0)   DampMin         ....    0.0000
   Turn off err/grad.   DampErr         ....    0.1000

SCF Procedure:
 Maximum # iterations   MaxIter         ....   125
 SCF integral mode      SCFMode         .... Direct
   Integral package                     .... SHARK and LIBINT hybrid scheme
 Reset frequency        DirectResetFreq ....    20
 Integral Threshold     Thresh          ....  2.500e-11 Eh
 Primitive CutOff       TCut            ....  2.500e-12 Eh

Convergence Tolerance:
 Convergence Check Mode ConvCheckMode   .... Total+1el-Energy
 Convergence forced     ConvForced      .... 1
 Energy Change          TolE            ....  1.000e-08 Eh
 1-El. energy change                    ....  1.000e-05 Eh
 Orbital Gradient       TolG            ....  1.000e-05
 Orbital Rotation angle TolX            ....  1.000e-05
 DIIS Error             TolErr          ....  5.000e-07

------------------------------
INITIAL GUESS: MODEL POTENTIAL
------------------------------
Loading Hartree-Fock densities                     ... done
Calculating cut-offs                               ... done
Initializing the effective Hamiltonian             ... done
Setting up the integral package (SHARK)            ... done
Starting the Coulomb interaction                   ... done (   0.0 sec)
Making the grid                                    ... done (   0.1 sec)
Mapping shells                                     ... done
Starting the XC term evaluation                    ... done (   0.0 sec)
  promolecular density results
     # of electrons  =     58.000653128
     EX              =    -51.061097528
     EC              =     -1.962409011
     EX+EC           =    -53.023506538
Transforming the Hamiltonian                       ... done (   0.0 sec)
Diagonalizing the Hamiltonian                      ... done (   0.0 sec)
Back transforming the eigenvectors                 ... done (   0.0 sec)
Now organizing SCF variables                       ... done
                      ------------------
                      INITIAL GUESS DONE (   0.1 sec)
                      ------------------
             **** ENERGY FILE WAS UPDATED (/dev/shm/3472866/uracil_s0_vg.inp-3472866/uracil_s0_vg.en.tmp) ****
Finished Guess after   0.2 sec
Maximum memory used throughout the entire GUESS-calculation: 9.5 MB


           ************************************************************
           *        Program running with 16 parallel MPI-processes    *
           *              working on a common directory               *
           ************************************************************

-------------------------------------------------------------------------------------------
                                      ORCA LEAN-SCF
                              memory conserving SCF solver
-------------------------------------------------------------------------------------------

----------------------------------------D-I-I-S--------------------------------------------
Iteration    Energy (Eh)           Delta-E    RMSDP     MaxDP     DIISErr   Damp  Time(sec)
-------------------------------------------------------------------------------------------
               ***  Starting incremental Fock matrix formation  ***
    1    -413.8249941329284525     0.00e+00  5.83e-03  1.45e-01  2.61e-01  0.700   0.4
    2    -413.9435753722796676    -1.19e-01  3.65e-03  9.05e-02  1.02e-01  0.700   0.3
                               ***Turning on AO-DIIS***
    3    -413.9844730351979365    -4.09e-02  1.17e-03  1.80e-02  3.97e-02  0.700   0.3
    4    -414.0111985722101622    -2.67e-02  1.78e-03  2.77e-02  1.98e-02  0.000   0.3
    5    -414.0711688016087351    -6.00e-02  4.23e-04  7.96e-03  8.19e-03  0.000   0.3
                              *** Initializing SOSCF ***
---------------------------------------S-O-S-C-F--------------------------------------
Iteration    Energy (Eh)           Delta-E    RMSDP     MaxDP     MaxGrad    Time(sec)
--------------------------------------------------------------------------------------
    6    -414.0715079112224544    -3.39e-04  1.24e-04  2.42e-03  1.21e-03     0.3
               *** Restarting incremental Fock matrix formation ***
    7    -414.0715210824210430    -1.32e-05  7.75e-05  1.44e-03  2.40e-04     0.4
    8    -414.0715218414712240    -7.59e-07  3.50e-05  6.35e-04  4.48e-04     0.4
    9    -414.0715244757332698    -2.63e-06  2.13e-05  3.72e-04  1.14e-04     0.3
   10    -414.0715245419580128    -6.62e-08  7.12e-06  1.58e-04  5.54e-05     0.3
   11    -414.0715246726572900    -1.31e-07  2.97e-06  5.48e-05  1.80e-05     0.3
   12    -414.0715246742855129    -1.63e-09  1.59e-06  3.12e-05  2.32e-05     0.3
                 **** Energy Check signals convergence ****

               *****************************************************
               *                     SUCCESS                       *
               *           SCF CONVERGED AFTER  12 CYCLES          *
               *****************************************************

Recomputing exchange energy using gridx3       ... done (    0.507 sec)
Old exchange energy                            :    -12.950246687 Eh
New exchange energy                            :    -12.950243004 Eh
Exchange energy change after final integration :      0.000003683 Eh
Total energy after final integration           :   -414.071520991 Eh
             **** ENERGY FILE WAS UPDATED (/dev/shm/3472866/uracil_s0_vg.inp-3472866/uracil_s0_vg.en.tmp) ****

----------------
TOTAL SCF ENERGY
----------------

Total Energy       :       -414.07152099094623 Eh          -11267.45891 eV

Components:
Nuclear Repulsion  :        357.25599314529694 Eh            9721.42980 eV
Electronic Energy  :       -771.32751781958245 Eh          -20988.88881 eV
One Electron Energy:      -1271.40215061851131 Eh          -34596.61138 eV
Two Electron Energy:        500.07463279892892 Eh           13607.72256 eV

Virial components:
Potential Energy   :       -824.69582536557095 Eh          -22441.11429 eV
Kinetic Energy     :        410.62430437462473 Eh           11173.65538 eV
Virial Ratio       :          2.00839506229806

DFT components:
N(Alpha)           :       29.000004774279 electrons
N(Beta)            :       29.000004774279 electrons
N(Total)           :       58.000009548559 electrons
E(X)               :      -38.823339726307 Eh       
E(C)               :       -1.980813142448 Eh       
E(XC)              :      -40.804152868755 Eh       

---------------
SCF CONVERGENCE
---------------

  Last Energy change         ...    1.6282e-09  Tolerance :   1.0000e-08
  Last MAX-Density change    ...    3.1207e-05  Tolerance :   1.0000e-07
  Last RMS-Density change    ...    1.5918e-06  Tolerance :   5.0000e-09
  Last DIIS Error            ...    1.2143e-03  Tolerance :   5.0000e-07
  Last Orbital Gradient      ...    2.3184e-05  Tolerance :   1.0000e-05
  Last Orbital Rotation      ...    2.3573e-05  Tolerance :   1.0000e-05


----------------
ORBITAL ENERGIES
----------------

  NO   OCC          E(Eh)            E(eV) 
   0   2.0000     -19.196322      -522.3585 
   1   2.0000     -19.188830      -522.1546 
   2   2.0000     -14.470108      -393.7517 
   3   2.0000     -14.449141      -393.1811 
   4   2.0000     -10.387798      -282.6663 
   5   2.0000     -10.353117      -281.7226 
   6   2.0000     -10.323144      -280.9070 
   7   2.0000     -10.255441      -279.0647 
   8   2.0000      -1.106465       -30.1084 
   9   2.0000      -1.069081       -29.0912 
  10   2.0000      -1.007336       -27.4110 
  11   2.0000      -0.950624       -25.8678 
  12   2.0000      -0.820795       -22.3350 
  13   2.0000      -0.714812       -19.4510 
  14   2.0000      -0.687146       -18.6982 
  15   2.0000      -0.619647       -16.8614 
  16   2.0000      -0.584462       -15.9040 
  17   2.0000      -0.540871       -14.7178 
  18   2.0000      -0.507108       -13.7991 
  19   2.0000      -0.489821       -13.3287 
  20   2.0000      -0.468399       -12.7458 
  21   2.0000      -0.441296       -12.0083 
  22   2.0000      -0.436451       -11.8764 
  23   2.0000      -0.429051       -11.6751 
  24   2.0000      -0.392238       -10.6733 
  25   2.0000      -0.315787        -8.5930 
  26   2.0000      -0.305113        -8.3025 
  27   2.0000      -0.283226        -7.7070 
  28   2.0000      -0.268843        -7.3156 
  29   0.0000      -0.042289        -1.1507 
  30   0.0000       0.014829         0.4035 
  31   0.0000       0.039323         1.0700 
  32   0.0000       0.090763         2.4698 
  33   0.0000       0.096065         2.6141 
  34   0.0000       0.127097         3.4585 
  35   0.0000       0.132759         3.6125 
  36   0.0000       0.186714         5.0807 
  37   0.0000       0.201872         5.4932 
  38   0.0000       0.236448         6.4341 
  39   0.0000       0.269901         7.3444 
*Only the first 10 virtual orbitals were printed.

                    ********************************
                    * MULLIKEN POPULATION ANALYSIS *
                    ********************************

-----------------------
MULLIKEN ATOMIC CHARGES
-----------------------
   0 C :    0.239039
   1 N :   -0.230254
   2 C :    0.264256
   3 N :   -0.198210
   4 C :    0.145111
   5 C :   -0.189112
   6 O :   -0.243865
   7 H :    0.053634
   8 O :   -0.236995
   9 H :    0.167569
  10 H :    0.167692
  11 H :    0.061135
Sum of atomic charges:   -0.0000000

--------------------------------
MULLIKEN REDUCED ORBITAL CHARGES
--------------------------------
  0 C s       :     2.980014  s :     2.980014
      pz      :     0.848505  p :     2.659725
      px      :     0.958913
      py      :     0.852308
      dz2     :     0.012851  d :     0.121221
      dxz     :     0.011345
      dyz     :     0.028842
      dx2y2   :     0.029791
      dxy     :     0.038392

  1 N s       :     3.401327  s :     3.401327
      pz      :     1.490152  p :     3.810992
      px      :     1.191206
      py      :     1.129634
      dz2     :     0.002417  d :     0.017936
      dxz     :     0.002113
      dyz     :     0.003875
      dx2y2   :     0.005326
      dxy     :     0.004205

  2 C s       :     2.960499  s :     2.960499
      pz      :     0.853150  p :     2.632210
      px      :     0.883836
      py      :     0.895224
      dz2     :     0.021342  d :     0.143035
      dxz     :     0.022143
      dyz     :     0.023446
      dx2y2   :     0.050064
      dxy     :     0.026039

  3 N s       :     3.372491  s :     3.372491
      pz      :     1.481999  p :     3.805016
      px      :     1.159908
      py      :     1.163109
      dz2     :     0.003088  d :     0.020703
      dxz     :     0.003997
      dyz     :     0.002666
      dx2y2   :     0.006285
      dxy     :     0.004668

  4 C s       :     3.048732  s :     3.048732
      pz      :     0.912270  p :     2.752340
      px      :     0.877370
      py      :     0.962701
      dz2     :     0.009268  d :     0.053817
      dxz     :     0.006304
      dyz     :     0.011755
      dx2y2   :     0.010475
      dxy     :     0.016015

  5 C s       :     3.228456  s :     3.228456
      pz      :     1.056977  p :     2.931591
      px      :     0.976134
      py      :     0.898480
      dz2     :     0.003402  d :     0.029064
      dxz     :     0.003605
      dyz     :     0.005538
      dx2y2   :     0.008731
      dxy     :     0.007789

  6 O s       :     3.737946  s :     3.737946
      pz      :     1.419170  p :     4.486759
      px      :     1.538126
      py      :     1.529462
      dz2     :     0.003568  d :     0.019160
      dxz     :     0.003723
      dyz     :     0.003812
      dx2y2   :     0.003098
      dxy     :     0.004958

  7 H s       :     0.922069  s :     0.922069
      pz      :     0.007977  p :     0.024296
      px      :     0.007863
      py      :     0.008456

  8 O s       :     3.738418  s :     3.738418
      pz      :     1.472175  p :     4.479791
      px      :     1.656202
      py      :     1.351415
      dz2     :     0.002330  d :     0.018786
      dxz     :     0.001115
      dyz     :     0.004871
      dx2y2   :     0.005461
      dxy     :     0.005009

  9 H s       :     0.789513  s :     0.789513
      pz      :     0.010276  p :     0.042918
      px      :     0.024608
      py      :     0.008034

 10 H s       :     0.787938  s :     0.787938
      pz      :     0.011477  p :     0.044370
      px      :     0.007725
      py      :     0.025168

 11 H s       :     0.915865  s :     0.915865
      pz      :     0.004535  p :     0.023001
      px      :     0.013832
      py      :     0.004634



                     *******************************
                     * LOEWDIN POPULATION ANALYSIS *
                     *******************************

----------------------
LOEWDIN ATOMIC CHARGES
----------------------
   0 C :    0.071807
   1 N :   -0.006732
   2 C :    0.082015
   3 N :    0.016778
   4 C :    0.060838
   5 C :   -0.124626
   6 O :   -0.213508
   7 H :    0.052177
   8 O :   -0.194581
   9 H :    0.105824
  10 H :    0.104658
  11 H :    0.045350

-------------------------------
LOEWDIN REDUCED ORBITAL CHARGES
-------------------------------
  0 C s       :     2.830939  s :     2.830939
      pz      :     0.863258  p :     2.824685
      px      :     0.994428
      py      :     0.966999
      dz2     :     0.027465  d :     0.272569
      dxz     :     0.023297
      dyz     :     0.062257
      dx2y2   :     0.067540
      dxy     :     0.092009

  1 N s       :     3.070697  s :     3.070697
      pz      :     1.452599  p :     3.885666
      px      :     1.224807
      py      :     1.208260
      dz2     :     0.005386  d :     0.050369
      dxz     :     0.005547
      dyz     :     0.009983
      dx2y2   :     0.016351
      dxy     :     0.013101

  2 C s       :     2.799206  s :     2.799206
      pz      :     0.896918  p :     2.802371
      px      :     0.946587
      py      :     0.958866
      dz2     :     0.040885  d :     0.316408
      dxz     :     0.049050
      dyz     :     0.051832
      dx2y2   :     0.116883
      dxy     :     0.057758

  3 N s       :     3.045352  s :     3.045352
      pz      :     1.452199  p :     3.882677
      px      :     1.219251
      py      :     1.211227
      dz2     :     0.006391  d :     0.055194
      dxz     :     0.009924
      dyz     :     0.006466
      dx2y2   :     0.018398
      dxy     :     0.014015

  4 C s       :     2.850985  s :     2.850985
      pz      :     0.930703  p :     2.958619
      px      :     0.991076
      py      :     1.036840
      dz2     :     0.020258  d :     0.129558
      dxz     :     0.014200
      dyz     :     0.027145
      dx2y2   :     0.026918
      dxy     :     0.041037

  5 C s       :     2.875845  s :     2.875845
      pz      :     1.069591  p :     3.167084
      px      :     1.042524
      py      :     1.054969
      dz2     :     0.007804  d :     0.081697
      dxz     :     0.009390
      dyz     :     0.013893
      dx2y2   :     0.025766
      dxy     :     0.024843

  6 O s       :     3.543690  s :     3.543690
      pz      :     1.451982  p :     4.637509
      px      :     1.595650
      py      :     1.589877
      dz2     :     0.004531  d :     0.032310
      dxz     :     0.006834
      dyz     :     0.007035
      dx2y2   :     0.004514
      dxy     :     0.009395

  7 H s       :     0.875726  s :     0.875726
      pz      :     0.024194  p :     0.072097
      px      :     0.024349
      py      :     0.023554

  8 O s       :     3.544684  s :     3.544684
      pz      :     1.479049  p :     4.618215
      px      :     1.678826
      py      :     1.460340
      dz2     :     0.004273  d :     0.031682
      dxz     :     0.001492
      dyz     :     0.007083
      dx2y2   :     0.009673
      dxy     :     0.009162

  9 H s       :     0.770451  s :     0.770451
      pz      :     0.034065  p :     0.123725
      px      :     0.067303
      py      :     0.022357

 10 H s       :     0.770632  s :     0.770632
      pz      :     0.035561  p :     0.124710
      px      :     0.022540
      py      :     0.066608

 11 H s       :     0.886483  s :     0.886483
      pz      :     0.013845  p :     0.068166
      px      :     0.039627
      py      :     0.014694



                      *****************************
                      * MAYER POPULATION ANALYSIS *
                      *****************************

  NA   - Mulliken gross atomic population
  ZA   - Total nuclear charge
  QA   - Mulliken gross atomic charge
  VA   - Mayer's total valence
  BVA  - Mayer's bonded valence
  FA   - Mayer's free valence

  ATOM       NA         ZA         QA         VA         BVA        FA
  0 C      5.7610     6.0000     0.2390     4.2625     4.2625    -0.0000
  1 N      7.2303     7.0000    -0.2303     3.1063     3.1063    -0.0000
  2 C      5.7357     6.0000     0.2643     4.3432     4.3432     0.0000
  3 N      7.1982     7.0000    -0.1982     3.2459     3.2459    -0.0000
  4 C      5.8549     6.0000     0.1451     3.8796     3.8796    -0.0000
  5 C      6.1891     6.0000    -0.1891     3.8500     3.8500    -0.0000
  6 O      8.2439     8.0000    -0.2439     2.2780     2.2780     0.0000
  7 H      0.9464     1.0000     0.0536     1.0036     1.0036     0.0000
  8 O      8.2370     8.0000    -0.2370     2.2779     2.2779    -0.0000
  9 H      0.8324     1.0000     0.1676     1.0086     1.0086     0.0000
 10 H      0.8323     1.0000     0.1677     0.9926     0.9926    -0.0000
 11 H      0.9389     1.0000     0.0611     0.9848     0.9848    -0.0000

  Mayer bond orders larger than 0.100000
B(  0-C ,  1-N ) :   1.0235 B(  0-C ,  5-C ) :   1.0545 B(  0-C ,  8-O ) :   2.1041 
B(  1-N ,  2-C ) :   1.0922 B(  1-N ,  9-H ) :   0.9000 B(  2-C ,  3-N ) :   1.0443 
B(  2-C ,  6-O ) :   2.1219 B(  3-N ,  4-C ) :   1.1588 B(  3-N , 10-H ) :   0.9150 
B(  4-C ,  5-C ) :   1.6777 B(  4-C , 11-H ) :   0.9562 B(  5-C ,  7-H ) :   0.9731 


-------
TIMINGS
-------

Total SCF time: 0 days 0 hours 0 min 4 sec 

Total time                  ....       4.557 sec
Sum of individual times     ....       4.542 sec  ( 99.7%)

SCF preparation             ....       0.113 sec  (  2.5%)
Fock matrix formation       ....       4.264 sec  ( 93.6%)
  Startup                   ....       0.009 sec  (  0.2% of F)
  Split-RI-J                ....       0.231 sec  (  5.4% of F)
  Chain of spheres X        ....       2.890 sec  ( 67.8% of F)
  XC integration            ....       1.081 sec  ( 25.4% of F)
    XC Preparation          ....       0.000 sec  (  0.0% of XC)
    Basis function eval.    ....       0.415 sec  ( 38.4% of XC)
    Density eval.           ....       0.161 sec  ( 14.9% of XC)
    XC-Functional eval.     ....       0.096 sec  (  8.9% of XC)
    XC-Potential eval.      ....       0.196 sec  ( 18.1% of XC)
Diagonalization             ....       0.000 sec  (  0.0%)
Density matrix formation    ....       0.017 sec  (  0.4%)
Total Energy calculation    ....       0.015 sec  (  0.3%)
Population analysis         ....       0.010 sec  (  0.2%)
Orbital Transformation      ....       0.013 sec  (  0.3%)
Orbital Orthonormalization  ....       0.000 sec  (  0.0%)
DIIS solution               ....       0.070 sec  (  1.5%)
SOSCF solution              ....       0.037 sec  (  0.8%)
Finished LeanSCF after   4.6 sec

Maximum memory used throughout the entire LEANSCF-calculation: 19.3 MB


           ************************************************************
           *        Program running with 16 parallel MPI-processes    *
           *              working on a common directory               *
           ************************************************************

------------------------------------------------------------------------------
                         ORCA PROPERTY INTEGRAL CALCULATIONS
------------------------------------------------------------------------------

GBWName                                   ... /dev/shm/3472866/uracil_s0_vg.inp-3472866/uracil_s0_vg.gbw
Number of atoms                           ...     12
Number of basis functions                 ...    132
Max core memory                           ...   2000 MB

Dipole integrals                          ... YES
Quadrupole integrals                      ...  NO
Linear momentum integrals                 ... YES
Angular momentum integrals                ... YES
Higher moments length integrals           ...  NO
Higher moments velocity integrals         ...  NO
Kinetic energy integrals                  ...  NO
GIAO right hand sides                     ...  NO
GIAO dipole derivative integrals          ...  NO
SOC integrals                             ...  NO
EPR diamagnetic integrals (GIAO)          ...  NO
EPR gauge integrals                       ...  NO
Field gradient integrals                  ...  NO (   0 nuclei)
Spin-dipole/Fermi contact integrals       ...  NO (   0 nuclei)
Contact density integrals                 ...  NO (   0 nuclei)
Nucleus-orbit integrals                   ...  NO (   0 nuclei)
Geometric perturbations                   ...  NO (  12 nuclei)

Choice of electric origin   ... Center of mass
Position of electric origin ... ( -0.0000,  0.0000, -0.0000) 
Choice of magnetic origin   ... GIAO
Position of magnetic origin ... (  0.0000,  0.0000,  0.0000) 

Calculating integrals                     ... Electric Dipole (Length)     done (  0.0 sec)
Calculating integrals                     ... Linear Momentum              done (  0.0 sec)
Calculating integrals                     ... Angular Momentum  (ElOri)    done (  0.0 sec)

Property integrals calculated in   0.0 sec

Maximum memory used throughout the entire PROPINT-calculation: 8.2 MB


           ************************************************************
           *        Program running with 16 parallel MPI-processes    *
           *              working on a common directory               *
           ************************************************************
------------------------------------------------------------------------------
                        ORCA TD-DFT/TDA CALCULATION
------------------------------------------------------------------------------

Input orbitals are from        ... /dev/shm/3472866/uracil_s0_vg.inp-3472866/uracil_s0_vg.gbw
CI-vector output               ... /dev/shm/3472866/uracil_s0_vg.inp-3472866/uracil_s0_vg.cis
Solver                         ... FN-2001
Tamm-Dancoff approximation     ... operative
CIS-Integral strategy          ... AO-integrals
Integral handling              ... AO integral Direct
Max. core memory used          ... 2000 MB
Reference state                ... RHF
Generation of triplets         ... off
Follow IRoot                   ... off
Number of operators            ... 1
Orbital ranges used for CIS calculation:
 Operator 0:  Orbitals   8... 28  to  29...131
XAS localization array:
 Operator 0:  Orbitals  -1... -1

-------------------
XC-INTEGRATION GRID
-------------------

General Integration Accuracy     IntAcc      ... 3.467
Radial Grid Type                 RadialGrid  ... OptM3 with GC (2021)
Angular Grid (max. ang.)         AngularGrid ... 3 (Lebedev-194)
Angular grid pruning method      GridPruning ... 4 (adaptive)
Weight generation scheme         WeightScheme... mBecke (2022)
Basis function cutoff            BFCut       ... 1.0000e-11
Integration weight cutoff        WCut        ... 1.0000e-14
Partially contracted basis set               ... off
Rotationally invariant grid construction     ... off
Angular grids for H and He will be reduced by one unit

Total number of grid points                  ...    24223
Total number of batches                      ...      385
Average number of points per batch           ...       62
Average number of grid points per atom       ...     2019

---------------------
COSX-INTEGRATION GRID
---------------------

General Integration Accuracy     IntAcc      ... 3.067
Radial Grid Type                 RadialGrid  ... OptM3 with GC (2021)
Angular Grid (max. ang.)         AngularGrid ... 2 (Lebedev-110)
Angular grid pruning method      GridPruning ... 4 (adaptive)
Weight generation scheme         WeightScheme... mBecke (2022)
Basis function cutoff            BFCut       ... 1.0000e-11
Integration weight cutoff        WCut        ... 1.0000e-14
Partially contracted basis set               ... on
Rotationally invariant grid construction     ... off
Angular grids for H and He will be reduced by one unit

Total number of grid points                  ...     9929
Total number of batches                      ...       84
Average number of points per batch           ...      118
Average number of grid points per atom       ...      827

---------------
TD-DFT XC SETUP
---------------

DFT calculation                         ... on
Name of the grid file                   ... /dev/shm/3472866/uracil_s0_vg.inp-3472866/uracil_s0_vg.grid_cis.tmp
RI-approximation                        ... on
Aux-basis dimension                     ... 0
Exchange functional (TD-DFT)            ... PBE
   PBE kappa parameter  XKappa (TD-DFT) ...  0.804000
   PBE mue parameter   XMuePBE (TD-DFT) ...  0.219520
Correlation functional (TD-DFT)         ... PBE
   PBE beta parameter CBetaPBE (TD-DFT) ...  0.066725
 LDA part of GGA corr.  LDAOpt (TD-DFT) ... PW91-LDA
Hybrid DFT                              ... on
   Exchange mixing (TD-DFT)             ...  0.250
   GGA exch. scaling (TD-DFT)           ...  0.750
   GGA corr. scaling (TD-DFT)           ...  1.000

Building densities             ... done
Calculating rho(r) on the grid ... done
Building xc-kernel on the grid ... done
                    *** TD-DFT CALCULATION INITIALIZED ***

------------------------
DAVIDSON-DIAGONALIZATION
------------------------

Dimension of the eigenvalue problem            ...   2163
Number of roots to be determined               ...      3
Maximum size of the expansion space            ...     30
Maximum number of iterations                   ...    100
Convergence tolerance for the residual         ...    2.500e-07
Convergence tolerance for the energies         ...    2.500e-07
Orthogonality tolerance                        ...    1.000e-14
Level Shift                                    ...    0.000e+00
Constructing the preconditioner                ... o.k.
Building the initial guess                     ... o.k.
Number of trial vectors determined             ...     30


                       ****Iteration    0****
   Time for iteration     :  TOTAL=0.4 TRAFO=0.0 RIJ=0.0 COSX=0.3 XC=0.1
   Size of expansion space: 9
   Lowest Energy          :     0.181730270297
   Maximum Energy change  :     0.237377430585 (vector 2)
   Maximum residual norm  :     0.025350799336

                       ****Iteration    1****
   Time for iteration     :  TOTAL=0.2 TRAFO=0.0 RIJ=0.0 COSX=0.1 XC=0.0
   Size of expansion space: 12
   Lowest Energy          :     0.178590034060
   Maximum Energy change  :     0.014418513552 (vector 1)
   Maximum residual norm  :     0.001737361217

                       ****Iteration    2****
   Time for iteration     :  TOTAL=0.2 TRAFO=0.0 RIJ=0.0 COSX=0.1 XC=0.0
   Size of expansion space: 15
   Lowest Energy          :     0.178384470005
   Maximum Energy change  :     0.002492455371 (vector 1)
   Maximum residual norm  :     0.000201617270

                       ****Iteration    3****
   Time for iteration     :  TOTAL=0.2 TRAFO=0.0 RIJ=0.0 COSX=0.1 XC=0.0
   Size of expansion space: 18
   Lowest Energy          :     0.178380453983
   Maximum Energy change  :     0.000192784006 (vector 1)
   Maximum residual norm  :     0.000014401659

                       ****Iteration    4****
   Time for iteration     :  TOTAL=0.2 TRAFO=0.0 RIJ=0.0 COSX=0.1 XC=0.0
   Size of expansion space: 21
   Lowest Energy          :     0.178380377991
   Maximum Energy change  :     0.000014861553 (vector 1)
   Maximum residual norm  :     0.000000576010

                       ****Iteration    5****
   Time for iteration     :  TOTAL=0.2 TRAFO=0.0 RIJ=0.0 COSX=0.1 XC=0.0
   Size of expansion space: 24
   Lowest Energy          :     0.178380375946
   Maximum Energy change  :     0.000000671210 (vector 1)
   Maximum residual norm  :     0.000000069052

      *** CONVERGENCE OF RESIDUAL NORM REACHED ***

Storing the converged CI vectors               ... /dev/shm/3472866/uracil_s0_vg.inp-3472866/uracil_s0_vg.cis1

                 *** DAVIDSON DONE ***

Total time for solving the CIS problem:     1.530sec

------------------------------------
TD-DFT/TDA EXCITED STATES (SINGLETS)
------------------------------------

the weight of the individual excitations are printed if larger than 1.0e-02

STATE  1:  E=   0.178380 au      4.854 eV    39150.0 cm**-1 <S**2> =   0.000000 Mult 1
    25a ->  29a  :     0.021567 (c=  0.14685544)
    27a ->  29a  :     0.921575 (c=  0.95998702)
    27a ->  30a  :     0.038208 (c=  0.19546823)
    27a ->  34a  :     0.010999 (c=  0.10487497)

STATE  2:  E=   0.209717 au      5.707 eV    46027.6 cm**-1 <S**2> =   0.000000 Mult 1
    24a ->  29a  :     0.012515 (c= -0.11186886)
    24a ->  30a  :     0.014219 (c=  0.11924153)
    26a ->  29a  :     0.072480 (c=  0.26922092)
    26a ->  30a  :     0.066205 (c=  0.25730413)
    28a ->  29a  :     0.799546 (c=  0.89417356)
    28a ->  34a  :     0.011280 (c=  0.10620781)

STATE  3:  E=   0.222857 au      6.064 eV    48911.5 cm**-1 <S**2> =   0.000000 Mult 1
    25a ->  29a  :     0.658207 (c=  0.81129973)
    25a ->  30a  :     0.070641 (c= -0.26578431)
    27a ->  29a  :     0.041753 (c= -0.20433613)
    27a ->  30a  :     0.218083 (c=  0.46699382)


-----------------------------
TD-DFT/TDA-EXCITATION SPECTRA
-----------------------------

Center of mass = (  0.0000,  0.0000, -0.0000)
Generating CIS transition densities           ... done

----------------------------------------------------------------------------------------------------
                     ABSORPTION SPECTRUM VIA TRANSITION ELECTRIC DIPOLE MOMENTS    
----------------------------------------------------------------------------------------------------
     Transition      Energy     Energy  Wavelength fosc(D2)      D2        DX        DY        DZ   
                      (eV)      (cm-1)    (nm)                 (au**2)    (au)      (au)      (au)  
----------------------------------------------------------------------------------------------------
  0-1A  ->  1-1A    4.853977   39150.0   255.4   0.000239991   0.00202   0.01607  -0.01595   0.03880
  0-1A  ->  2-1A    5.706693   46027.6   217.3   0.159298939   1.13938   0.19786   0.99836   0.32174
  0-1A  ->  3-1A    6.064255   48911.5   204.5   0.000001028   0.00001   0.00092  -0.00069   0.00236

----------------------------------------------------------------------------------------------------
                     ABSORPTION SPECTRUM VIA TRANSITION VELOCITY DIPOLE MOMENTS    
----------------------------------------------------------------------------------------------------
     Transition      Energy     Energy  Wavelength fosc(P2)      P2        PX        PY        PZ   
                      (eV)      (cm-1)    (nm)                 (au**2)    (au)      (au)      (au)  
----------------------------------------------------------------------------------------------------
  0-1A  ->  1-1A    4.853977   39150.0   255.4   0.000918377   0.00025   0.00559  -0.00552   0.01357
  0-1A  ->  2-1A    5.706693   46027.6   217.3   0.001297171   0.00041   0.01366   0.01488   0.00032
  0-1A  ->  3-1A    6.064255   48911.5   204.5   0.000112194   0.00004   0.00218  -0.00213   0.00531

------------------------------------------------------------------------------------------
                     CD SPECTRUM VIA TRANSITION ELECTRIC DIPOLE MOMENTS    
------------------------------------------------------------------------------------------
     Transition      Energy     Energy  Wavelength    R        MX        MY        MZ   
                      (eV)      (cm-1)    (nm)   (1e40*cgs)   (au)      (au)      (au)  
------------------------------------------------------------------------------------------
  0-1A  ->  1-1A    4.853977   39150.0   255.4   -0.03193  -0.16918  -0.24661  -0.02955
  0-1A  ->  2-1A    5.706693   46027.6   217.3    0.08153   0.24831  -0.24297   0.60069
  0-1A  ->  3-1A    6.064255   48911.5   204.5    0.02661   0.15440  -0.18563  -0.13856

------------------------------------------------------------------------------------------
                     CD SPECTRUM VIA TRANSITION VELOCITY DIPOLE MOMENTS    
------------------------------------------------------------------------------------------
     Transition      Energy     Energy  Wavelength    R        MX        MY        MZ   
                      (eV)      (cm-1)    (nm)   (1e40*cgs)   (au)      (au)      (au)  
------------------------------------------------------------------------------------------
  0-1A  ->  1-1A    4.853977   39150.0   255.4    0.03861  -0.16918  -0.24661  -0.02955
  0-1A  ->  2-1A    5.706693   46027.6   217.3   -0.07140   0.24831  -0.24297   0.60069
  0-1A  ->  3-1A    6.064255   48911.5   204.5   -0.00736   0.15440  -0.18563  -0.13856

Total run time:        1.707 sec

           *** ORCA-CIS/TD-DFT FINISHED WITHOUT ERROR ***
-----------------------
CIS/TD-DFT TOTAL ENERGY
-----------------------

    E(SCF)  =   -414.071520991 Eh
    DE(CIS) =      0.178380376 Eh (Root  1)
    ----------------------------- ---------
    E(tot)  =   -413.893140615 Eh


------------------------
TD-DFT GRADIENT XC SETUP
------------------------

Building densities                     ... done
Calculating rho(r) on the grid         ... done
Building xc-kernel on the grid         ... done
Building xc 3rd derivative on the grid ... done
                *** TD-DFT GRADIENT CALCULATION INITIALIZED ***

--------------------------
TD-DFT/TDA RELAXED DENSITY
--------------------------

Reference wavefunction             ... RHF
State of interest                  ... 1
Basis dimension                    ... 132
DFT-XC contribution needed         ... YES
RI-approximation                   ... YES
Do Coulomb                         ... YES
Do Exchange                        ... YES
Need Hartree-Fock Exchange         ... YES
facj, facx                         ...  2.000, -0.250
Conventional                       ... NO
Range separation                   ... NO
Triplet state                      ... NO
Spin Flip                          ... NO
CIS-vectors being read from        ... /dev/shm/3472866/uracil_s0_vg.inp-3472866/uracil_s0_vg.cis
 => Number of Vectors found: 3
 => Orbital Window: 8...28 -> 29...131

Reading the CIS file                     ... done
Norm of the CI vector                    ... 1.000000000
Making the CIS (pseudo)densities         ... done
Making operators G(D) and Q(T)           ... (SHARK-ok)done
Transforming the Fock operators          ... done
Making the frozen-core relaxed density   ... done
Constructing the G(H) operator           ... (SHARK-ok)done
Transforming the G(H) operator           ... done
Calculating the CIS Lagrangian           ... done
Solving the Z-vector equations           ... 

Using XC Grid                  ... (/dev/shm/3472866/uracil_s0_vg.inp-3472866/uracil_s0_vg.grid_cpscf.tmp) 
Recalculating density on grid  ... (/dev/shm/3472866/uracil_s0_vg.inp-3472866/uracil_s0_vg.grho_cpscf0.tmp) done
Calculating the xc-kernel      ... (/dev/shm/3472866/uracil_s0_vg.inp-3472866/uracil_s0_vg.fxc_cpscf0.tmp) done

-------------------
SHARK CP-SCF DRIVER
-------------------

Dimension of the orbital basis          ...    132
Dimension of the CPSCF-problem          ...   2987
Number of operators                     ...      1
Max. number of iterations               ...    128
Convergence Tolerance                   ... 1.0e-04
Number of perturbations                 ...      1
Perturbation type                       ... REAL

----------------------------
POPLE LINEAR EQUATION SOLVER
----------------------------

  ITERATION   0:   ||err||_max =   3.6718e+00 (   0.2 sec)
  ITERATION   1:   ||err||_max =   7.2294e-02 (   0.2 sec)
  ITERATION   2:   ||err||_max =   2.4630e-02 (   0.2 sec)
  ITERATION   3:   ||err||_max =   7.9492e-03 (   0.2 sec)
  ITERATION   4:   ||err||_max =   1.9858e-03 (   0.2 sec)
  ITERATION   5:   ||err||_max =   6.7431e-04 (   0.2 sec)
  ITERATION   6:   ||err||_max =   2.1922e-04 (   0.2 sec)
  ITERATION   7:   ||err||_max =   6.6942e-05 (   0.2 sec)

Finalizing the relaxed density           ... done
Storing the relaxed density              ... done
Constructing the G(Z) operator           ... (SHARK-ok)done
Adding the XC terms                      ... done
Transforming the G(Z) operator           ... done
Making the W-matrix                      ... done
Finalizing the W-matrix                  ... done
Transforming the W-matrix                ... done
Nuc. rep. gradient        (SHARK) ... done (  0.0 sec)
HCore & Overlap gradient  (SHARK) ... done (  0.0 sec)
Split-RIJ-J gradient      (SHARK) ... done (  0.2 sec)
COSX-gradient                     ... done (  1.5 sec)
Dispersion correction             ... done (  0.1 sec)

-------------------
DISPERSION GRADIENT
-------------------

   1   C   :    0.000020051    0.000181389    0.000065089
   2   N   :    0.000080657    0.000024885   -0.000023275
   3   C   :    0.000095014   -0.000144875   -0.000097891
   4   N   :   -0.000063282   -0.000130704   -0.000026646
   5   C   :   -0.000218531   -0.000063929    0.000064560
   6   C   :   -0.000129729    0.000099855    0.000094036
   7   O   :    0.000172450   -0.000186575   -0.000146802
   8   H   :   -0.000057143    0.000052292    0.000044767
   9   O   :    0.000092878    0.000268291    0.000070028
  10   H   :    0.000117896    0.000036626   -0.000033972
  11   H   :   -0.000030183   -0.000105672   -0.000030246
  12   H   :   -0.000080078   -0.000031582    0.000020353

Difference to translation invariance:
           :   -0.0000000000   -0.0000000000    0.0000000000

Difference to rotation invariance:
           :    0.0000000000   -0.0000000000    0.0000000000

Norm of the Dispersion gradient    ...    0.0006442701
RMS gradient                       ...    0.0001073783
MAX gradient                       ...    0.0002682909

                 ---------------------------
                 EXCITED STATE GRADIENT DONE
                 ---------------------------

------------------
CARTESIAN GRADIENT
------------------

   1   C   :    0.110342916    0.135049537    0.008967691
   2   N   :   -0.033543435   -0.022261039    0.004875435
   3   C   :    0.042062668    0.018283994   -0.010043936
   4   N   :   -0.038125540    0.007853477    0.018963740
   5   C   :    0.037908034    0.029104711   -0.003910700
   6   C   :   -0.051618143   -0.059314706   -0.002657687
   7   O   :   -0.010422664   -0.006469162    0.001726732
   8   H   :   -0.000878680   -0.000234755    0.000264999
   9   O   :   -0.052764340   -0.101500038   -0.019147340
  10   H   :    0.000471014    0.003944609    0.001397192
  11   H   :   -0.001216052   -0.001656627   -0.000165691
  12   H   :   -0.002230171   -0.002824908   -0.000226866

Difference to translation invariance:
           :   -0.0000143927   -0.0000249080    0.0000435691

Difference to rotation invariance:
           :    0.0000127031   -0.0000679297    0.0000397326

Norm of the Cartesian gradient     ...    0.2415565858
RMS gradient                       ...    0.0402594310
MAX gradient                       ...    0.1350495368

------------------------------------------------------------------------------
                  RELAXED CIS/TDA DENSITY POPULATION ANALYSIS
                                   IROOT 1
------------------------------------------------------------------------------
------------------------------------------------------------------------------
                           ORCA POPULATION ANALYSIS
------------------------------------------------------------------------------
Input electron density              ... /dev/shm/3472866/uracil_s0_vg.inp-3472866/uracil_s0_vg.cispre.singlet.iroot1
BaseName (.gbw .S,...)              ... /dev/shm/3472866/uracil_s0_vg.inp-3472866/uracil_s0_vg

                    ********************************
                    * MULLIKEN POPULATION ANALYSIS *
                    ********************************

-----------------------
MULLIKEN ATOMIC CHARGES
-----------------------
   0 C :    0.223218
   1 N :   -0.245896
   2 C :    0.284562
   3 N :   -0.201363
   4 C :    0.026454
   5 C :   -0.184416
   6 O :   -0.234164
   7 H :    0.039430
   8 O :   -0.071664
   9 H :    0.165637
  10 H :    0.159871
  11 H :    0.038330
Sum of atomic charges:   -0.0000000

--------------------------------
MULLIKEN REDUCED ORBITAL CHARGES
--------------------------------
  0 C s       :     2.954707  s :     2.954707
      pz      :     0.942116  p :     2.715416
      px      :     0.961412
      py      :     0.811889
      dz2     :     0.013301  d :     0.106659
      dxz     :     0.015319
      dyz     :     0.025568
      dx2y2   :     0.025752
      dxy     :     0.026720
  1 N s       :     3.396546  s :     3.396546
      pz      :     1.521871  p :     3.830449
      px      :     1.178753
      py      :     1.129825
      dz2     :     0.003132  d :     0.018901
      dxz     :     0.002271
      dyz     :     0.003998
      dx2y2   :     0.004834
      dxy     :     0.004666
  2 C s       :     2.956878  s :     2.956878
      pz      :     0.844202  p :     2.614391
      px      :     0.894036
      py      :     0.876153
      dz2     :     0.021527  d :     0.144169
      dxz     :     0.023341
      dyz     :     0.023802
      dx2y2   :     0.049478
      dxy     :     0.026021
  3 N s       :     3.368060  s :     3.368060
      pz      :     1.497300  p :     3.811179
      px      :     1.148845
      py      :     1.165033
      dz2     :     0.004065  d :     0.022124
      dxz     :     0.004225
      dyz     :     0.002761
      dx2y2   :     0.006418
      dxy     :     0.004655
  4 C s       :     3.026487  s :     3.026487
      pz      :     1.066478  p :     2.896885
      px      :     0.877693
      py      :     0.952714
      dz2     :     0.008149  d :     0.050175
      dxz     :     0.006710
      dyz     :     0.010774
      dx2y2   :     0.010043
      dxy     :     0.014499
  5 C s       :     3.173920  s :     3.173920
      pz      :     1.131889  p :     2.976279
      px      :     0.903759
      py      :     0.940630
      dz2     :     0.003377  d :     0.034217
      dxz     :     0.005718
      dyz     :     0.007891
      dx2y2   :     0.009590
      dxy     :     0.007641
  6 O s       :     3.740609  s :     3.740609
      pz      :     1.439058  p :     4.474473
      px      :     1.535971
      py      :     1.499444
      dz2     :     0.003533  d :     0.019082
      dxz     :     0.003657
      dyz     :     0.003858
      dx2y2   :     0.003107
      dxy     :     0.004927
  7 H s       :     0.935807  s :     0.935807
      pz      :     0.008590  p :     0.024763
      px      :     0.008037
      py      :     0.008135
  8 O s       :     3.782256  s :     3.782256
      pz      :     1.647043  p :     4.270943
      px      :     1.220638
      py      :     1.403262
      dz2     :     0.002326  d :     0.018465
      dxz     :     0.001073
      dyz     :     0.004776
      dx2y2   :     0.005396
      dxy     :     0.004894
  9 H s       :     0.789794  s :     0.789794
      pz      :     0.011838  p :     0.044568
      px      :     0.024795
      py      :     0.007935
 10 H s       :     0.795473  s :     0.795473
      pz      :     0.011971  p :     0.044656
      px      :     0.007949
      py      :     0.024735
 11 H s       :     0.936497  s :     0.936497
      pz      :     0.006977  p :     0.025173
      px      :     0.013418
      py      :     0.004778


                     *******************************
                     * LOEWDIN POPULATION ANALYSIS *
                     *******************************

----------------------
LOEWDIN ATOMIC CHARGES
----------------------
   0 C :    0.007402
   1 N :   -0.002885
   2 C :    0.096620
   3 N :    0.009419
   4 C :   -0.079270
   5 C :   -0.155472
   6 O :   -0.196616
   7 H :    0.044731
   8 O :    0.043381
   9 H :    0.101262
  10 H :    0.099972
  11 H :    0.031456

-------------------------------
LOEWDIN REDUCED ORBITAL CHARGES
-------------------------------
  0 C s       :     2.821545  s :     2.821545
      pz      :     0.965575  p :     2.931753
      px      :     1.014662
      py      :     0.951516
      dz2     :     0.028201  d :     0.239299
      dxz     :     0.031243
      dyz     :     0.055238
      dx2y2   :     0.059764
      dxy     :     0.064853
  1 N s       :     3.056710  s :     3.056710
      pz      :     1.484323  p :     3.895054
      px      :     1.218287
      py      :     1.192445
      dz2     :     0.006334  d :     0.051120
      dxz     :     0.005640
      dyz     :     0.009816
      dx2y2   :     0.015522
      dxy     :     0.013809
  2 C s       :     2.796865  s :     2.796865
      pz      :     0.889965  p :     2.788776
      px      :     0.955747
      py      :     0.943064
      dz2     :     0.041167  d :     0.317740
      dxz     :     0.050572
      dyz     :     0.053009
      dx2y2   :     0.115474
      dxy     :     0.057518
  3 N s       :     3.038944  s :     3.038944
      pz      :     1.468298  p :     3.893928
      px      :     1.212714
      py      :     1.212917
      dz2     :     0.008385  d :     0.057709
      dxz     :     0.010203
      dyz     :     0.006566
      dx2y2   :     0.018709
      dxy     :     0.013846
  4 C s       :     2.833977  s :     2.833977
      pz      :     1.080139  p :     3.120381
      px      :     1.005210
      py      :     1.035032
      dz2     :     0.018503  d :     0.124911
      dxz     :     0.015489
      dyz     :     0.025886
      dx2y2   :     0.026808
      dxy     :     0.038225
  5 C s       :     2.856733  s :     2.856733
      pz      :     1.139914  p :     3.206767
      px      :     0.997903
      py      :     1.068951
      dz2     :     0.007248  d :     0.091972
      dxz     :     0.013611
      dyz     :     0.019368
      dx2y2   :     0.027501
      dxy     :     0.024244
  6 O s       :     3.544770  s :     3.544770
      pz      :     1.469655  p :     4.619685
      px      :     1.589843
      py      :     1.560187
      dz2     :     0.004485  d :     0.032161
      dxz     :     0.006741
      dyz     :     0.007061
      dx2y2   :     0.004544
      dxy     :     0.009331
  7 H s       :     0.882595  s :     0.882595
      pz      :     0.025968  p :     0.072674
      px      :     0.024097
      py      :     0.022609
  8 O s       :     3.562045  s :     3.562045
      pz      :     1.636030  p :     4.362032
      px      :     1.227275
      py      :     1.498726
      dz2     :     0.004131  d :     0.032543
      dxz     :     0.001797
      dyz     :     0.007835
      dx2y2   :     0.009794
      dxy     :     0.008986
  9 H s       :     0.772154  s :     0.772154
      pz      :     0.037205  p :     0.126584
      px      :     0.066831
      py      :     0.022548
 10 H s       :     0.774988  s :     0.774988
      pz      :     0.036935  p :     0.125040
      px      :     0.022699
      py      :     0.065406
 11 H s       :     0.893806  s :     0.893806
      pz      :     0.021908  p :     0.074738
      px      :     0.038181
      py      :     0.014649


[...]
     10       0.000018  -0.000030  -0.000106   0.000092  -0.000124   0.000116
     11       0.000070   0.000081  -0.000008   0.000039  -0.000202   0.000037
     12       0.000093  -0.000053  -0.000111   0.000020  -0.000277  -0.000041
     13      -0.000150   0.000001   0.000078   0.000098   0.000105  -0.000502
     14      -0.000099   0.000022   0.000078   0.000031   0.000157  -0.000186
     15       0.000078   0.000243   0.000160   0.000124   0.000212   0.000150
     16      -0.000046   0.000229   0.000162  -0.000036   0.000084   0.000394
     17      -0.000051  -0.000008  -0.000001  -0.000066  -0.000054   0.000097
     18      -0.000015  -0.000008   0.000039   0.000112  -0.000103   0.000027
     19       0.000014   0.000044  -0.000122  -0.000029   0.000093  -0.000003
     20       0.000012   0.000021  -0.000066  -0.000058   0.000080  -0.000013
     21       0.001002  -0.000439  -0.000534   0.000171  -0.000217  -0.000301
     22       0.000878  -0.000466  -0.000543  -0.000017  -0.000360   0.000019
     23      -0.000059  -0.000007   0.000001  -0.000077  -0.000056   0.000132
     24       0.000049  -0.000017  -0.000058   0.000023   0.000006  -0.000049
     25      -0.000005   0.000033  -0.000144  -0.000104  -0.000036  -0.000090
     26      -0.000023   0.000020  -0.000034  -0.000051  -0.000017  -0.000016
     27       0.000243  -0.000206   0.000179   0.000291   0.000041   0.000022
     28      -0.000974   0.001009  -0.001454  -0.000298   0.000189   0.000024
     29      -0.000495   0.000493  -0.000662  -0.000241   0.000060   0.000001
     30      -0.000469   0.000896  -0.000118   0.001041  -0.001039  -0.000189
     31       0.000078  -0.000240  -0.000113  -0.000094   0.000118   0.000166
     32       0.000225  -0.000468   0.000003  -0.000469   0.000478   0.000145
     33       0.000044   0.000275   0.000153   0.000160  -0.000202  -0.000364
     34       0.000013  -0.001170  -0.000894  -0.000299  -0.000279   0.000388
     35      -0.000013  -0.000587  -0.000425  -0.000187  -0.000029   0.000307
                 24         25         26         27         28         29    
      0       0.000250   0.000052  -0.000000  -0.000005   0.000001   0.000001
      1       0.000504   0.000097   0.000000  -0.000003  -0.000001   0.000000
      2       0.000100   0.000018   0.000000   0.000001  -0.000001  -0.000000
      3      -0.000012  -0.000028  -0.000000  -0.000001  -0.000118  -0.000001
      4      -0.000084   0.000073  -0.000000   0.000000  -0.000039  -0.000001
      5      -0.000029   0.000041  -0.000000   0.000000   0.000033   0.000000
      6      -0.000047   0.000336   0.000002   0.000000   0.000001  -0.000002
      7       0.000076  -0.000366   0.000000   0.000001   0.000002  -0.000000
      8       0.000050  -0.000287  -0.000001   0.000000   0.000001   0.000001
      9       0.000004  -0.000073   0.000003  -0.000002   0.000001   0.000037
     10      -0.000011   0.000039  -0.000000   0.000001  -0.000000   0.000119
     11      -0.000006   0.000046  -0.000001   0.000001  -0.000000   0.000033
     12       0.000006   0.000008  -0.000144   0.000026   0.000000   0.000003
     13       0.000044  -0.000010  -0.000064   0.000021   0.000000  -0.000002
     14       0.000015  -0.000007   0.000034  -0.000002   0.000000  -0.000002
     15      -0.000073  -0.000012   0.000020   0.000095   0.000001  -0.000000
     16      -0.000101  -0.000013  -0.000007  -0.000103   0.000000  -0.000002
     17      -0.000011  -0.000000  -0.000011  -0.000081  -0.000000  -0.000001
     18       0.000032  -0.000197  -0.000000  -0.000000  -0.000000  -0.000000
     19      -0.000032   0.000203   0.000000  -0.000000   0.000000   0.000000
     20      -0.000026   0.000164   0.000000   0.000000   0.000000   0.000000
     21       0.000144   0.000026  -0.000192  -0.001109   0.000001  -0.000001
     22       0.000135   0.000028   0.000182   0.001091  -0.000001   0.000001
     23      -0.000005   0.000001   0.000153   0.000899  -0.000001   0.000001
     24      -0.000131  -0.000026  -0.000000   0.000001  -0.000000  -0.000000
     25      -0.000305  -0.000068  -0.000000   0.000001  -0.000000  -0.000000
     26      -0.000069  -0.000017  -0.000000   0.000000   0.000000  -0.000000
     27      -0.000090   0.000032   0.000001   0.000000   0.001605   0.000009
     28       0.000327  -0.000224   0.000000  -0.000000   0.000520   0.000003
     29       0.000170  -0.000104  -0.000001  -0.000000  -0.000454  -0.000003
     30      -0.000041   0.000311  -0.000013   0.000004   0.000004  -0.000505
     31       0.000003  -0.000031  -0.000012   0.000006   0.000010  -0.001602
     32       0.000018  -0.000141   0.000001   0.000001   0.000002  -0.000439
     33       0.000031   0.000003   0.001629  -0.000262  -0.000001  -0.000012
     34      -0.000018  -0.000002   0.000685  -0.000117  -0.000000  -0.000003
     35      -0.000020  -0.000002  -0.000396   0.000061   0.000000   0.000003

  (will need at least 30 displacements)
	<<Displacing mode 1 (+)>>  tdip = (2.255881e-01 0.000000e+00),
					  (9.246946e-01 0.000000e+00),
					  (2.807230e-01 0.000000e+00)
	<<Displacing mode 2 (+)>>  tdip = (2.253143e-01 0.000000e+00),
					  (9.248767e-01 0.000000e+00),
					  (2.803309e-01 0.000000e+00)
	<<Displacing mode 3 (+)>>  tdip = (2.255951e-01 0.000000e+00),
					  (9.238312e-01 0.000000e+00),
					  (2.801856e-01 0.000000e+00)
	<<Displacing mode 4 (+)>>  tdip = (2.255963e-01 0.000000e+00),
					  (9.250697e-01 0.000000e+00),
					  (2.809373e-01 0.000000e+00)
	<<Displacing mode 5 (+)>>  tdip = (2.258718e-01 0.000000e+00),
					  (9.244986e-01 0.000000e+00),
					  (2.803411e-01 0.000000e+00)
	<<Displacing mode 6 (+)>>  tdip = (2.255093e-01 0.000000e+00),
					  (9.244309e-01 0.000000e+00),
					  (2.804638e-01 0.000000e+00)
	<<Displacing mode 7 (+)>>  tdip = (2.257650e-01 0.000000e+00),
					  (9.244170e-01 0.000000e+00),
					  (2.803526e-01 0.000000e+00)
	<<Displacing mode 8 (+)>>  tdip = (2.256400e-01 0.000000e+00),
					  (9.251229e-01 0.000000e+00),
					  (2.804845e-01 0.000000e+00)
	<<Displacing mode 9 (+)>>  tdip = (2.257317e-01 0.000000e+00),
					  (9.246709e-01 0.000000e+00),
					  (2.805334e-01 0.000000e+00)
	<<Displacing mode 10 (+)>>  tdip = (2.256601e-01 0.000000e+00),
					  (9.247936e-01 0.000000e+00),
					  (2.806233e-01 0.000000e+00)
	<<Displacing mode 11 (+)>>  tdip = (2.257512e-01 0.000000e+00),
					  (9.248853e-01 0.000000e+00),
					  (2.805477e-01 0.000000e+00)
	<<Displacing mode 12 (+)>>  tdip = (2.253918e-01 0.000000e+00),
					  (9.246677e-01 0.000000e+00),
					  (2.806047e-01 0.000000e+00)
	<<Displacing mode 13 (+)>>  tdip = (2.253757e-01 0.000000e+00),
					  (9.248247e-01 0.000000e+00),
					  (2.804922e-01 0.000000e+00)
	<<Displacing mode 14 (+)>>  tdip = (2.255171e-01 0.000000e+00),
					  (9.249192e-01 0.000000e+00),
					  (2.802807e-01 0.000000e+00)
	<<Displacing mode 15 (+)>>  tdip = (2.254001e-01 0.000000e+00),
					  (9.242767e-01 0.000000e+00),
					  (2.804459e-01 0.000000e+00)
	<<Displacing mode 16 (+)>>  tdip = (2.255905e-01 0.000000e+00),
					  (9.251144e-01 0.000000e+00),
					  (2.807061e-01 0.000000e+00)
	<<Displacing mode 17 (+)>>  tdip = (2.254285e-01 0.000000e+00),
					  (9.246369e-01 0.000000e+00),
					  (2.805802e-01 0.000000e+00)
	<<Displacing mode 18 (+)>>  tdip = (2.257068e-01 0.000000e+00),
					  (9.243243e-01 0.000000e+00),
					  (2.803389e-01 0.000000e+00)
	<<Displacing mode 19 (+)>>  tdip = (2.258934e-01 0.000000e+00),
					  (9.247634e-01 0.000000e+00),
					  (2.804395e-01 0.000000e+00)
	<<Displacing mode 20 (+)>>  tdip = (2.258973e-01 0.000000e+00),
					  (9.247244e-01 0.000000e+00),
					  (2.804220e-01 0.000000e+00)
	<<Displacing mode 21 (+)>>  tdip = (2.255232e-01 0.000000e+00),
					  (9.250826e-01 0.000000e+00),
					  (2.807214e-01 0.000000e+00)
	<<Displacing mode 22 (+)>>  tdip = (2.252189e-01 0.000000e+00),
					  (9.227014e-01 0.000000e+00),
					  (2.798855e-01 0.000000e+00)
	<<Displacing mode 23 (+)>>  tdip = (2.253160e-01 0.000000e+00),
					  (9.245450e-01 0.000000e+00),
					  (2.805895e-01 0.000000e+00)
	<<Displacing mode 24 (+)>>  tdip = (2.257630e-01 0.000000e+00),
					  (9.261096e-01 0.000000e+00),
					  (2.810374e-01 0.000000e+00)
	<<Displacing mode 25 (+)>>  tdip = (2.252832e-01 0.000000e+00),
					  (9.242546e-01 0.000000e+00),
					  (2.804861e-01 0.000000e+00)
	<<Displacing mode 26 (+)>>  tdip = (2.262582e-01 0.000000e+00),
					  (9.265849e-01 0.000000e+00),
					  (2.810253e-01 0.000000e+00)
	<<Displacing mode 27 (+)>>  tdip = (2.254986e-01 0.000000e+00),
					  (9.250409e-01 0.000000e+00),
					  (2.807147e-01 0.000000e+00)
	<<Displacing mode 28 (+)>>  tdip = (2.258054e-01 0.000000e+00),
					  (9.247007e-01 0.000000e+00),
					  (2.804504e-01 0.000000e+00)
	<<Displacing mode 29 (+)>>  tdip = (2.256703e-01 0.000000e+00),
					  (9.240435e-01 0.000000e+00),
					  (2.802409e-01 0.000000e+00)
	<<Displacing mode 30 (+)>>  tdip = (2.255174e-01 0.000000e+00),
					  (9.248794e-01 0.000000e+00),
					  (2.806418e-01 0.000000e+00)

Final check on derivatives:			...done
Writting GS hessian to:				/dev/shm/3472866/uracil_s0_vg.inp-3472866/uracil_s0_vg.GS.hess
Writting ES hessian to:				/dev/shm/3472866/uracil_s0_vg.inp-3472866/uracil_s0_vg.ES.hess.root2

The first order derivatives per mode are:

Real part:  
                  0          1          2    
      0       0.000247  -0.000293   0.000262
      1      -0.000503   0.000212  -0.000817
      2       0.000436  -0.004138  -0.001854
      3       0.000438   0.001141   0.001348
      4       0.001852  -0.001498  -0.001372
      5       0.000093  -0.001877  -0.000797
      6       0.001378  -0.001978  -0.001368
      7       0.000758   0.001646  -0.000733
      8       0.001338  -0.000749  -0.000519
      9       0.000989  -0.000079   0.000025
     10       0.001552   0.000484  -0.000444
     11      -0.000598  -0.000835  -0.000095
     12      -0.000711   0.000111  -0.000792
     13       0.000151   0.000764  -0.002297
     14      -0.000618  -0.003541  -0.001180
     15       0.000662   0.002091   0.000570
     16      -0.000456  -0.001187  -0.000293
     17       0.001590  -0.003569  -0.002101
     18       0.003006  -0.000311  -0.001367
     19       0.003249  -0.000639  -0.001601
     20       0.000247   0.002234   0.000801
     21      -0.002212  -0.017045  -0.005969
     22      -0.001478  -0.002171  -0.000269
     23       0.002390   0.011550   0.003681
     24      -0.001929  -0.005072  -0.001251
     25       0.007125   0.016566   0.003755
     26       0.000073   0.002868   0.001130
     27       0.003825  -0.001272  -0.002094
     28       0.002288  -0.009801  -0.004903
     29       0.000322   0.000967   0.000260

Image part: 
                  0          1          2    
      0       0.000000   0.000000   0.000000
      1       0.000000   0.000000   0.000000
      2       0.000000   0.000000   0.000000
      3       0.000000   0.000000   0.000000
      4       0.000000   0.000000   0.000000
      5       0.000000   0.000000   0.000000
      6       0.000000   0.000000   0.000000
      7       0.000000   0.000000   0.000000
      8       0.000000   0.000000   0.000000
      9       0.000000   0.000000   0.000000
     10       0.000000   0.000000   0.000000
     11       0.000000   0.000000   0.000000
     12       0.000000   0.000000   0.000000
     13       0.000000   0.000000   0.000000
     14       0.000000   0.000000   0.000000
     15       0.000000   0.000000   0.000000
     16       0.000000   0.000000   0.000000
     17       0.000000   0.000000   0.000000
     18       0.000000   0.000000   0.000000
     19       0.000000   0.000000   0.000000
     20       0.000000   0.000000   0.000000
     21       0.000000   0.000000   0.000000
     22       0.000000   0.000000   0.000000
     23       0.000000   0.000000   0.000000
     24       0.000000   0.000000   0.000000
     25       0.000000   0.000000   0.000000
     26       0.000000   0.000000   0.000000
     27       0.000000   0.000000   0.000000
     28       0.000000   0.000000   0.000000
     29       0.000000   0.000000   0.000000

          ***Everything is set, now computing the correlation function***

Homogeneous linewidth is:			50.00 cm-1
Inhomogeneous linewidth is:			150.00 cm-1
Number of points:				131072
Maximum time:					1592.65 fs
Spectral resolution:				3.33 cm-1
Temperature used:				298.15 K
Z value:					1.303843e-40
Cutoff for the correlation function:		1.00e-06
Adiabatic energy difference:			43351.77 cm-1
0-0 energy difference:				43351.77 cm-1
Reference transition dipole (x,y,z):		(2.25493e-01 0.00000e+00),
                                    		(9.24805e-01 0.00000e+00),
                                    		(2.80622e-01 0.00000e+00) 
Calculating correlation function:		...done
Last element of the correlation function:	0.000000,0.000000
Computing the Fourier Transform:		...done

The absorption spectrum was saved in		/dev/shm/3472866/uracil_s0_vg.inp-3472866/uracil_s0_vg.spectrum.root2

Total run time: 0 hours 13 minutes 11 seconds

                      ****ORCA ESD FINISHED WITHOUT ERROR****

--------------------------------
SUGGESTED CITATIONS FOR THIS RUN
--------------------------------

Below you find a list of papers that are relevant to this ORCA run
We neither can nor want to force you to cite these papers, but we appreciate if you do
You receive ORCA, which is the product of decades of hard work by many enthusiastic individuals, for free
The only thing we kindly ask in return is that you cite our papers,
We deeply appreciate it, if you show your appreciation for ORCA by not just citing the generic ORCA reference.

Please note that relegating all ORCA citations to the supporting information does *not* help us.
SI sections are not indexed - citations you put there will not count into any citation statistics
But we need these citations in order to attract the funding resources that allow us to do what we are doing

Therefore, if you are a happy ORCA user, please consider citing a few of the papers listed below in the main body of your paper

In addition to the list printed below, the program has created the file /dev/shm/3472866/uracil_s0_vg.inp-3472866/uracil_s0_vg.bibtex that contains the list in bibtex format
You can import this file easily into all common literature databanks and citation aid programs


List of essential papers. We consider these as the minimum necessary citations

  1. Neese,F.
     Software update: the ORCA program system, version 5.0
     WIRES Comput. Molec. Sci., 2022 12(1)e1606
     doi.org/10.1002/wcms.1606

List of papers to cite with high priority. The work reported in these papers was absolutely
necessary for this run to complete.
Our perspective: the developers of density functionals and basis sets usually get cited in chemistry papers
Good! But without the algorithms to do something with them, the functionals or basis sets would not do anything.
Hence, in our opinion, the algorithm design and method developments papers are equally worthy of getting cited

  1. Neese,F.; Olbrich,G.
     Efficient use of the resolution of the identity approximation in time-dependent density functional calculations with hybrid density functionals
     Chem. Phys. Lett., 2002 362 170-178
     doi.org/10.1016/s0009-2614(02)01053-9
  2. Neese,F.
     An improvement of the resolution of the identity approximation for the formation of the Coulomb matrix
     J. Comp. Chem., 2003 24(14)1740-1747
     doi.org/10.1002/jcc.10318
  3. Neese,F.; Wennmohs,F.; Hansen,A.; Becker,U.
     Efficient, approximate and parallel Hartree-Fock and hybrid DFT calculations. A 'chain-of-spheres' algorithm for the Hartree-Fock exchange
     Chem. Phys., 2009 356(1-3)98-109
     doi.org/10.1016/j.chemphys.2008.10.036
  4. Bykov,D.; Petrenko,T.; Izsak,R.; Kossmann,S.; Becker,U.; Valeev,E.; Neese,F.
     Efficient implementation of the analytic second derivatives of Hartree-Fock and hybrid DFT energies: a detailed analysis of different approximations
     Molec. Phys., 2015 113 1961-1977
     doi.org/10.1080/00268976.2015.1025114
  5. de Souza,B.; Neese,F.; Izsak,R.
     On the theoretical prediction of fluorescence rates from first principles using the path integral approach
     J. Chem. Phys., 2018 148 10
     doi.org/10.1063/1.5010895
  6. Helmich-Paris,B.; de Souza,B.; Neese,F.; Izsák,R.
     An improved chain of spheres for exchange algorithm
     J. Chem. Phys., 2021 155 104109
     doi.org/doi: 10.1063/5.0058766.
  7. Neese,F.
     The SHARK Integral Generation and Digestion System
     J. Comp. Chem., 2022  1-16
     doi.org/10.1002/jcc.26942
  8. Caldeweyher,E.; Bannwarth,C.; Grimme,S.
     Extension of the D3 dispersion coefficient model
     J. Chem. Phys., 2017 147 034112
     doi.org/10.1063/1.4993215
  9. Caldeweyher,E.; Ehlert,S.; Hansen,A.; Neugebauer,H.; Spicher,S.; Bannwarth,C.; Grimme,S.
     A generally applicable atomic-charge dependent London dispersion correction
     J. Chem. Phys., 2019 150 154122
     doi.org/10.1063/1.5090222
 10. Caldeweyher,E.; Mewes,J.; Ehlert,S.; Grimme,S.
     Extension and evaluation of the D4 London-dispersion model for periodic systems
     Phys. Chem. Chem. Phys., 2020 22(16)8499-8512
     doi.org/10.1039/D0CP00502A
 11. Wittmann,L.; Gordiy,I.; Friede,M.; Helmich-Paris,B.; Grimme,S.; Hansen,A.; Bursch,M.
     Extension of the D3 and D4 London Dispersion Corrections to the full Actinides Series
     Phys. Chem. Chem. Phys., 2024 26(32)21379-21394
     doi.org/https://doi.org/10.1039/D4CP01514B 

List of suggested additional citations. These are papers that are important in the 'surrounding' of 
of this run, or papers that preceded the highly important papers. If you like your results we are grateful for a citation.

  1. Izsak,R.; Neese,F.
     An overlap fitted chain of spheres exchange method
     J. Chem. Phys., 2011 135 144105
     doi.org/10.1063/1.3646921
  2. Izsak,R.; Hansen,A.; Neese,F.
     The resolution of identity and chain of spheres approximations for the LPNO-CCSD singles Fock term
     Molec. Phys., 2012 110 2413-2417
     doi.org/10.1080/00268976.2012.687466
  3. Neese,F.
     The ORCA program system
     WIRES Comput. Molec. Sci., 2012 2(1)73-78
     doi.org/10.1002/wcms.81
  4. Izsak,R.; Neese,F.; Klopper,W.
     Robust fitting techniques in the chain of spheres approximation to the Fock exchange: The role of the complementary space
     J. Chem. Phys., 2013 139 
     doi.org/10.1063/1.4819264
  5. Neese,F.
     Software update: the ORCA program system, version 4.0
     WIRES Comput. Molec. Sci., 2018 8(1)1-6
     doi.org/10.1002/wcms.1327
  6. de Souza,B.; Farias,G.; Neese,F.; Izsak,R.
     Predicting Phosphorescence Rates of Light Organic Molecules Using Time-Dependent Density Functional Theory and the Path Integral Approach to Dynamics
     J. Chem. Theory Comput., 2019 15 1896-1904
     doi.org/10.1021/acs.jctc.8b00841
  7. Neese,F.; Wennmohs,F.; Becker,U.; Riplinger,C.
     The ORCA quantum chemistry program package
     J. Chem. Phys., 2020 152 Art. No. L224108
     doi.org/10.1063/5.0004608

List of optional additional citations

  1. Neese,F.
     Approximate second-order SCF convergence for spin unrestricted wavefunctions
     Chem. Phys. Lett., 2000 325(1-3)93-98
     doi.org/10.1016/s0009-2614(00)00662-x

Timings for individual modules:

Sum of individual times          ...      807.123 sec (=  13.452 min)
Startup calculation              ...        2.036 sec (=   0.034 min)   0.3 %
SCF iterations                   ...        5.149 sec (=   0.086 min)   0.6 %
Property integrals               ...        0.267 sec (=   0.004 min)   0.0 %
Property calculations            ...        0.262 sec (=   0.004 min)   0.0 %
CIS module                       ...        7.389 sec (=   0.123 min)   0.9 %
                             ****ORCA TERMINATED NORMALLY****
TOTAL RUN TIME: 0 days 0 hours 13 minutes 27 seconds 545 msec
