
                                 *****************
                                 * O   R   C   A *
                                 *****************

                                            #,                                       
                                            ###                                      
                                            ####                                     
                                            #####                                    
                                            ######                                   
                                           ########,                                 
                                     ,,################,,,,,                         
                               ,,#################################,,                 
                          ,,##########################################,,             
                       ,#########################################, ''#####,          
                    ,#############################################,,   '####,        
                  ,##################################################,,,,####,       
                ,###########''''           ''''###############################       
              ,#####''   ,,,,##########,,,,          '''####'''          '####       
            ,##' ,,,,###########################,,,                        '##       
           ' ,,###''''                  '''############,,,                           
         ,,##''                                '''############,,,,        ,,,,,,###''
      ,#''                                            '''#######################'''  
     '                                                          ''''####''''         
             ,#######,   #######,   ,#######,      ##                                
            ,#'     '#,  ##    ##  ,#'     '#,    #''#        ,####,   ,####,        
            ##       ##  ##   ,#'  ##            #'  '#       #'       #'  '#        
            ##       ##  #######   ##           ,######,      #####,   #    #        
            '#,     ,#'  ##    ##  '#,     ,#' ,#      #,     #,   #   #,  ,#        
             '#######'   ##     ##  '#######'  #'      '#     '####' # '####'        



                #########################################################
                #                        -***-                          #
                #          Department of theory and spectroscopy        #
                #                                                       #
                #                      Frank Neese                      #
                #                                                       #
                #     Directorship, Architecture, Infrastructure        #
                #                    SHARK, DRIVERS                     #
                #        Core code/Algorithms in most modules           #
                #                                                       #
                #        Max Planck Institute fuer Kohlenforschung      #
                #                Kaiser Wilhelm Platz 1                 #
                #                 D-45470 Muelheim/Ruhr                 #
                #                      Germany                          #
                #                                                       #
                #                  All rights reserved                  #
                #                        -***-                          #
                #########################################################


                         Program Version 6.0.1  -  RELEASE   -


 With contributions from (in alphabetic order):
[Max-Planck-Institut fuer Kohlenforschung]                               
  Daniel Aravena         : Magnetic Suceptibility                        
  Michael Atanasov       : Ab Initio Ligand Field Theory (pilot matlab implementation)
  Alexander A. Auer      : GIAO ZORA, VPT2 properties, NMR spectrum      
  Ute Becker             : All parallelization in ORCA, NUMFREQ, NUMCALC 
  Giovanni Bistoni       : ED, misc. LED, open-shell LED, HFLD           
  Martin Brehm           : Molecular dynamics                            
  Dmytro Bykov           : pre 5.0 version of the SCF Hessian            
  Marcos Casanova-Páez   : Triplet and SCS-CIS(D). UHF-(DLPNO)-IP/EA/STEOM-CCSD. UHF-CVS-IP/STEOM-CCSD   
  Vijay G. Chilkuri      : MRCI spin determinant printing, contributions to CSF-ICE 
  Pauline Colinet        : FMM embedding                                 
  Dipayan Datta          : RHF DLPNO-CCSD density                        
  Achintya Kumar Dutta   : EOM-CC, STEOM-CC                              
  Nicolas Foglia         : Exact transition moments, OPA infrastructure, MCD improvements    
  Dmitry Ganyushin       : Spin-Orbit,Spin-Spin,Magnetic field MRCI      
  Miquel Garcia-Rates    : C-PCM and meta-GGA Hessian, CCSD/C-PCM, Gaussian charge scheme 
  Tiago L. C. Gouveia    : GS-ROHF, GS-ROCIS                             
  Yang Guo               : DLPNO-NEVPT2, F12-NEVPT2, CIM, IAO-localization        
  Andreas Hansen         : Spin unrestricted coupled pair/coupled cluster methods 
  Ingolf Harden          : AUTO-CI MPn and infrastructure                
  Benjamin Helmich-Paris : MC-RPA, TRAH-(SCF,CASSCF), AVAS, COSX integrals, SCF dyn. polar. 
  Lee Huntington         : MR-EOM, pCC                                   
  Robert Izsak           : Overlap fitted RIJCOSX, COSX-SCS-MP3, EOM     
  Riya Kayal             : Wick's Theorem for AUTO-CI, AUTO-CI UHF-CCSDT 
  Emily Kempfer          : AUTO-CI, RHF CISDT and CCSDT                  
  Christian Kollmar      : KDIIS, OOCD, Brueckner-CCSD(T), CCSD density, CASPT2, CASPT2-K, improved NEVPT2 
  Axel Koslowski         : Symmetry handling                             
  Simone Kossmann        : meta-GGA functionals, TD-DFT gradient, OOMP2, (MP2 Hessian; deprecated post 5.0) 
  Lucas Lang             : DCDCAS                                        
  Marvin Lechner         : AUTO-CI (C++ implementation), FIC-MRCC        
  Spencer Leger          : CASSCF response                               
  Dagmar Lenk            : GEPOL surface, SMD, ORCA-2-JSON               
  Dimitrios Liakos       : Extrapolation schemes; Compound Job, initial MDCI parallelization 
  Dimitrios Manganas     : Further ROCIS development; embedding schemes. LFT, Crystal Embedding 
  Dimitrios Pantazis     : SARC Basis sets                               
  Anastasios Papadopoulos: AUTO-CI, single reference methods and gradients 
  Taras Petrenko         : pre 6.0 DFT Hessian and TD-DFT gradient, (ASA, deprecated), ECA, 1-Electron XAS/XES, NRVS 
  Peter Pinski           : DLPNO-MP2, DLPNO-MP2 Gradient                 
  Christoph Reimann      : Effective Core Potentials                     
  Marius Retegan         : Local ZFS, SOC                                
  Christoph Riplinger    : Optimizer, TS searches, QM/MM, DLPNO-CCSD(T), (RO)-DLPNO pert. Triples 
  Michael Roemelt        : Original ROCIS implementation                 
  Masaaki Saitow         : Open-shell DLPNO-CCSD energy and density      
  Barbara Sandhoefer     : DKH picture change effects                    
  Kantharuban Sivalingam : CASSCF convergence/infrastructure, NEVPT2 and variants, FIC-MRCI 
  Bernardo de Souza      : ESD, SOC TD-DFT                               
  Georgi L. Stoychev     : AutoAux, RI-MP2 NMR, DLPNO-MP2 response, X2C  
  Van Anh Tran           : RI-MP2 g-tensors                              
  Willem Van den Heuvel  : Paramagnetic NMR                              
  Zikuan Wang            : NOTCH, Electric field optimization            
  Frank Wennmohs         : Technical directorship and infrastructure     
  Hang Xu                : AUTO-CI-Response properties                   
                                                                         
[FACCTs GmbH]                                                            
  Markus Bursch, Miquel Garcia-Rates, Christoph Riplinger, Bernardo de Souza, Georgi L. Stoychev 
                                                                 
  APM, Basis sets (HGBS, AHGBS, def-TZVP (Ac-Lr), def2-XVPD (La-Lu)), CI-OPT, improved COSX, DLPNO-Multilevel,           
  DOCKER, DRACO, updates on ESD, GOAT, IRC, LR-CPCM, MBIS, meta-GGA TD-DFT gradient, ML-optimized integration grids, 
  MM, NACMEs, nearIR, NEB, NEB-TS, NL-DFT gradient (VV10), 2- and 3-layer-ONIOM, interface openCOSMO-RS, QMMM,   
  Crystal-QMMM, SF, symmetry and pop. for TD-DFT, r2SCAN hybrids, SOLVATOR                                   
                                                                         
[Other institutions]                                                     
  V. Asgeirsson          : NEB                                           
  Christoph Bannwarth    : sTDA-DFT, sTD-DFT, PBEh-3c, B97-3c, D3        
  Sebastian Ehlert       : rSCAN, r2SCAN, r2SCAN-3c, D4, dhf basis sets  
  Marvin Friede          : D4 for Fr, Ra, Ac-Lr                          
  Lars Goerigk           : TD-DFT with DH, B97 family of functionals     
  Stefan Grimme          : VdW corrections, initial TS optimization, DFT functionals, gCP, sTDA/sTD-DF 
  Waldemar Hujo          : DFT-NL                                        
  H. Jonsson             : NEB                                           
  Holger Kruse           : gCP                                           
  Marcel Mueller         : wB97X-3c, vDZP basis set                      
  Hagen Neugebauer       : wr2SCAN                                       
  Tobias Risthaus        : range-separated hybrid DFT                    
  Lukas Wittmann         : regularized MP2, r2SCAN double-hybrids, wr2SCAN        
                                                                         
We gratefully acknowledge several colleagues who have allowed us to      
interface, adapt or use parts of their codes:                            
  Ed Valeev, F. Pavosevic, A. Kumar             : LibInt (2-el integral package), F12 methods 
  Garnet Chan, S. Sharma, J. Yang, R. Olivares  : DMRG                   
  Ulf Ekstrom                                   : XCFun DFT Library      
  Mihaly Kallay                                 : mrcc  (arbitrary order and MRCC methods)
  Frank Weinhold                                : gennbo (NPA and NBO analysis)           
  Simon Mueller                                 : openCOSMO-RS                            
  Christopher J. Cramer and Donald G. Truhlar   : smd solvation model                     
  S Lehtola, MJT Oliveira, MAL Marques          : LibXC Library                           
  Liviu Ungur et al                             : ANISO software                          


 Your calculation uses the libint2 library for the computation of 2-el integrals
 For citations please refer to: http://libint.valeyev.net

 Your ORCA version has been built with support for libXC version: 6.2.2
 For citations please refer to: https://libxc.gitlab.io

 This ORCA versions uses:
   CBLAS   interface :  Fast vector & matrix operations
   LAPACKE interface :  Fast linear algebra routines
   SCALAPACK package :  Parallel linear algebra routines
   Shared memory     :  Shared parallel matrices
   BLAS/LAPACK       :  OpenBLAS 0.3.27  USE64BITINT DYNAMIC_ARCH NO_AFFINITY SkylakeX SINGLE_THREADED
        Core in use  :  SkylakeX
   Copyright (c) 2011-2014, The OpenBLAS Project


NOTE: MaxCore=2000 MB was set to SCF,MP2,MDCI,CIPSI,MRCI and CIS
      => If you want to overwrite this, your respective input block should be placed after the MaxCore statement


***************************************
The coordinates will be read from file: uracil_s0.xyz
***************************************


Your calculation utilizes the atom-pairwise dispersion correction
based on EEQ partial charges (D4)


================================================================================

----- Orbital basis set information -----
Your calculation utilizes the basis: def2-SVP
   F. Weigend and R. Ahlrichs, Phys. Chem. Chem. Phys. 7, 3297 (2005).

----- AuxJ basis set information -----
Your calculation utilizes the auxiliary basis: def2/J
   F. Weigend, Phys. Chem. Chem. Phys. 8, 1057 (2006).

================================================================================
                                        WARNINGS
                       Please study these warnings very carefully!
================================================================================


================================================================================
                                       INPUT FILE
================================================================================
NAME = /dev/shm/3472798/uracil_s0_freq.inp-3472798/uracil_s0_freq.inp
|  1> %pal nprocs 16 end
|  2> %maxcore 2000
|  3> ! pbe0 d4 def2-SVP freq RIJCOSX Def2/J defgrid3 TightSCF
|  4> 
|  5> * xyzfile 0 1 uracil_s0.xyz
|  6> 
|  7> 
|  8>                          ****END OF INPUT****
================================================================================

                       ****************************
                       * Single Point Calculation *
                       ****************************

---------------------------------
CARTESIAN COORDINATES (ANGSTROEM)
---------------------------------
  C      0.714123    1.012224    0.553675
  N      1.488072    0.073180   -0.146480
  C      1.150596   -1.207575   -0.524939
  N     -0.134035   -1.563586   -0.137278
  C     -0.976315   -0.732774    0.546980
  C     -0.613397    0.517887    0.902398
  O      1.880974   -1.954516   -1.129227
  H     -1.282636    1.180838    1.447013
  O      1.159404    2.106817    0.811265
  H      2.421340    0.374717   -0.410798
  H     -0.415929   -2.499834   -0.399300
  H     -1.957967   -1.148134    0.785012

----------------------------
CARTESIAN COORDINATES (A.U.)
----------------------------
  NO LB      ZA    FRAG     MASS         X           Y           Z
   0 C     6.0000    0    12.011    1.349498    1.912827    1.046294
   1 N     7.0000    0    14.007    2.812049    0.138289   -0.276807
   2 C     6.0000    0    12.011    2.174312   -2.281986   -0.991990
   3 N     7.0000    0    14.007   -0.253289   -2.954750   -0.259417
   4 C     6.0000    0    12.011   -1.844968   -1.384742    1.033643
   5 C     6.0000    0    12.011   -1.159153    0.978665    1.705286
   6 O     8.0000    0    15.999    3.554527   -3.693500   -2.133930
   7 H     1.0000    0     1.008   -2.423831    2.231460    2.734459
   8 O     8.0000    0    15.999    2.190956    3.981307    1.533069
   9 H     1.0000    0     1.008    4.575669    0.708113   -0.776296
  10 H     1.0000    0     1.008   -0.785992   -4.724002   -0.754567
  11 H     1.0000    0     1.008   -3.700022   -2.169659    1.483457

--------------------------------
INTERNAL COORDINATES (ANGSTROEM)
--------------------------------
 C      0   0   0     0.000000000000     0.00000000     0.00000000
 N      1   0   0     1.403929725867     0.00000000     0.00000000
 C      2   1   0     1.377480638317   128.59865324     0.00000000
 N      3   2   1     1.388272849493   112.85617750     0.00000000
 C      4   3   2     1.366709022704   123.65493506     0.00000000
 C      5   4   3     1.349883444937   121.96108359     0.00000000
 O      3   2   1     1.206871074571   124.38481712   180.00613626
 H      6   5   4     1.088113020049   122.06694377   179.98883527
 O      1   2   3     1.209446514432   120.57096672   180.04511452
 H      2   1   3     1.015764470077   115.95811480   179.99478624
 H      4   3   2     1.012265159608   114.99838727   180.00376101
 H      5   4   3     1.092164911805   115.58522491   179.98572930

---------------------------
INTERNAL COORDINATES (A.U.)
---------------------------
 C      0   0   0     0.000000000000     0.00000000     0.00000000
 N      1   0   0     2.653042693160     0.00000000     0.00000000
 C      2   1   0     2.603061161198   128.59865324     0.00000000
 N      3   2   1     2.623455484700   112.85617750     0.00000000
 C      4   3   2     2.582705757669   123.65493506     0.00000000
 C      5   4   3     2.550910023645   121.96108359     0.00000000
 O      3   2   1     2.280655809890   124.38481712   180.00613626
 H      6   5   4     2.056235610647   122.06694377   179.98883527
 O      1   2   3     2.285522685902   120.57096672   180.04511452
 H      2   1   3     1.919516665014   115.95811480   179.99478624
 H      4   3   2     1.912903926570   114.99838727   180.00376101
 H      5   4   3     2.063892576390   115.58522491   179.98572930

---------------------
BASIS SET INFORMATION
---------------------
There are 4 groups of distinct atoms

 Group   1 Type C   : 7s4p1d contracted to 3s2p1d pattern {511/31/1}
 Group   2 Type N   : 7s4p1d contracted to 3s2p1d pattern {511/31/1}
 Group   3 Type O   : 7s4p1d contracted to 3s2p1d pattern {511/31/1}
 Group   4 Type H   : 4s1p contracted to 2s1p pattern {31/1}

Atom   0C    basis set group =>   1
Atom   1N    basis set group =>   2
Atom   2C    basis set group =>   1
Atom   3N    basis set group =>   2
Atom   4C    basis set group =>   1
Atom   5C    basis set group =>   1
Atom   6O    basis set group =>   3
Atom   7H    basis set group =>   4
Atom   8O    basis set group =>   3
Atom   9H    basis set group =>   4
Atom  10H    basis set group =>   4
Atom  11H    basis set group =>   4
---------------------------------
AUXILIARY/J BASIS SET INFORMATION
---------------------------------
There are 4 groups of distinct atoms

 Group   1 Type C   : 12s5p4d2f1g contracted to 6s4p3d1f1g pattern {711111/2111/211/2/1}
 Group   2 Type N   : 12s5p4d2f1g contracted to 6s4p3d1f1g pattern {711111/2111/211/2/1}
 Group   3 Type O   : 12s5p4d2f1g contracted to 6s4p3d1f1g pattern {711111/2111/211/2/1}
 Group   4 Type H   : 5s2p1d contracted to 3s1p1d pattern {311/2/1}

Atom   0C    basis set group =>   1
Atom   1N    basis set group =>   2
Atom   2C    basis set group =>   1
Atom   3N    basis set group =>   2
Atom   4C    basis set group =>   1
Atom   5C    basis set group =>   1
Atom   6O    basis set group =>   3
Atom   7H    basis set group =>   4
Atom   8O    basis set group =>   3
Atom   9H    basis set group =>   4
Atom  10H    basis set group =>   4
Atom  11H    basis set group =>   4


           ************************************************************
           *        Program running with 16 parallel MPI-processes    *
           *              working on a common directory               *
           ************************************************************
------------------------------------------------------------------------------
                             ORCA STARTUP CALCULATIONS
                           -- RI-GTO INTEGRALS CHOSEN --
------------------------------------------------------------------------------
------------------------------------------------------------------------------
                   ___                                                        
                  /   \      - P O W E R E D   B Y -                         
                 /     \                                                     
                 |  |  |   _    _      __       _____    __    __             
                 |  |  |  | |  | |    /  \     |  _  \  |  |  /  |          
                  \  \/   | |  | |   /    \    | | | |  |  | /  /          
                 / \  \   | |__| |  /  /\  \   | |_| |  |  |/  /          
                |  |  |   |  __  | /  /__\  \  |    /   |      \           
                |  |  |   | |  | | |   __   |  |    \   |  |\   \          
                \     /   | |  | | |  |  |  |  | |\  \  |  | \   \       
                 \___/    |_|  |_| |__|  |__|  |_| \__\ |__|  \__/        
                                                                              
                      - O R C A' S   B I G   F R I E N D -                    
                                      &                                       
                       - I N T E G R A L  F E E D E R -                       
                                                                              
 v1 FN, 2020, v2 2021, v3 2022-2024                                           
------------------------------------------------------------------------------


----------------------
SHARK INTEGRAL PACKAGE
----------------------

Number of atoms                             ...     12
Number of basis functions                   ...    132
Number of shells                            ...     60
Maximum angular momentum                    ...      2
Integral batch strategy                     ... SHARK/LIBINT Hybrid
RI-J (if used) integral strategy            ... SPLIT-RIJ (Revised 2003 algorithm where possible)
Printlevel                                  ...      1
Contraction scheme used                     ... SEGMENTED contraction
Prescreening option                         ... SCHWARTZ
   Thresh                                   ... 2.500e-11
   Tcut                                     ... 2.500e-12
   Tpresel                                  ... 2.500e-12 
Coulomb Range Separation                    ... NOT USED
Exchange Range Separation                   ... NOT USED
Multipole approximations                    ... NOT USED
Finite Nucleus Model                        ... NOT USED
CABS basis                                  ... NOT available
Auxiliary Coulomb fitting basis             ... AVAILABLE
   # of basis functions in Aux-J            ...    436
   # of shells in Aux-J                     ...    140
   Maximum angular momentum in Aux-J        ...      4
Auxiliary J/K fitting basis                 ... NOT available
Auxiliary Correlation fitting basis         ... NOT available
Auxiliary 'external' fitting basis          ... NOT available

Checking pre-screening integrals            ... done (  0.0 sec) Dimension = 60
Check shell pair data                       ... done (  0.0 sec)
Shell pair information
Shell pair cut-off parameter TPreSel        ...   2.5e-12
Total number of shell pairs                 ...      1830
Shell pairs after pre-screening             ...      1737
Total number of primitive shell pairs       ...      6902
Primitive shell pairs kept                  ...      4908
          la=0 lb=0:    493 shell pairs
          la=1 lb=0:    613 shell pairs
          la=1 lb=1:    204 shell pairs
          la=2 lb=0:    238 shell pairs
          la=2 lb=1:    154 shell pairs
          la=2 lb=2:     35 shell pairs

Calculating one electron integrals          ... done (  0.0 sec)
Calculating RI/J V-Matrix + Cholesky decomp.... done (  0.0 sec)
Calculating Nuclear repulsion               ... done (  0.0 sec) ENN=    357.255993145297 Eh

Diagonalization of the overlap matrix:
Smallest eigenvalue                        ... 1.281e-03
Time for diagonalization                   ...    0.015 sec
Threshold for overlap eigenvalues          ... 1.000e-07
Number of eigenvalues below threshold      ... 0
Time for construction of square roots      ...    0.001 sec
Total time needed                          ...    0.017 sec

-------------------
DFT GRID GENERATION
-------------------

General Integration Accuracy     IntAcc      ... 4.959
Radial Grid Type                 RadialGrid  ... OptM3 with GC (2021)
Angular Grid (max. ang.)         AngularGrid ... 6 (Lebedev-590)
Angular grid pruning method      GridPruning ... 4 (adaptive)
Weight generation scheme         WeightScheme... mBecke (2022)
Basis function cutoff            BFCut       ... 1.0000e-11
Integration weight cutoff        WCut        ... 1.0000e-14
Partially contracted basis set               ... off
Rotationally invariant grid construction     ... off
Angular grids for H and He will be reduced by one unit

Total number of grid points                  ...   150041
Total number of batches                      ...     2351
Average number of points per batch           ...       63
Average number of grid points per atom       ...    12503

--------------------
COSX GRID GENERATION
--------------------

GRIDX 1
-------
General Integration Accuracy     IntAcc      ... 4.020
Radial Grid Type                 RadialGrid  ... OptM3 with GC (2021)
Angular Grid (max. ang.)         AngularGrid ... 2 (Lebedev-110)
Angular grid pruning method      GridPruning ... 4 (adaptive)
Weight generation scheme         WeightScheme... mBecke (2022)
Basis function cutoff            BFCut       ... 1.0000e-11
Integration weight cutoff        WCut        ... 1.0000e-14
Partially contracted basis set               ... on
Rotationally invariant grid construction     ... off
Angular grids for H and He will be reduced by one unit

Total number of grid points                  ...    17603
Total number of batches                      ...      145
Average number of points per batch           ...      121
Average number of grid points per atom       ...     1467
UseSFitting                                  ... on

GRIDX 2
-------
General Integration Accuracy     IntAcc      ... 4.338
Radial Grid Type                 RadialGrid  ... OptM3 with GC (2021)
Angular Grid (max. ang.)         AngularGrid ... 3 (Lebedev-194)
Angular grid pruning method      GridPruning ... 4 (adaptive)
Weight generation scheme         WeightScheme... mBecke (2022)
Basis function cutoff            BFCut       ... 1.0000e-11
Integration weight cutoff        WCut        ... 1.0000e-14
Partially contracted basis set               ... on
Rotationally invariant grid construction     ... off
Angular grids for H and He will be reduced by one unit

Total number of grid points                  ...    38998
Total number of batches                      ...      312
Average number of points per batch           ...      124
Average number of grid points per atom       ...     3250
UseSFitting                                  ... on

GRIDX 3
-------
General Integration Accuracy     IntAcc      ... 4.871
Radial Grid Type                 RadialGrid  ... OptM3 with GC (2021)
Angular Grid (max. ang.)         AngularGrid ... 4 (Lebedev-302)
Angular grid pruning method      GridPruning ... 4 (adaptive)
Weight generation scheme         WeightScheme... mBecke (2022)
Basis function cutoff            BFCut       ... 1.0000e-11
Integration weight cutoff        WCut        ... 1.0000e-14
Partially contracted basis set               ... on
Rotationally invariant grid construction     ... off
Angular grids for H and He will be reduced by one unit

Total number of grid points                  ...    72160
Total number of batches                      ...      569
Average number of points per batch           ...      126
Average number of grid points per atom       ...     6013
UseSFitting                                  ... on
Initializing property integral containers    ... done (  0.0 sec)

SHARK setup successfully completed in   1.9 seconds

Maximum memory used throughout the entire STARTUP-calculation: 31.1 MB


           ************************************************************
           *        Program running with 16 parallel MPI-processes    *
           *              working on a common directory               *
           ************************************************************
-------------------------------------------------------------------------------
                                 ORCA GUESS
                   Start orbitals & Density for SCF / CASSCF
-------------------------------------------------------------------------------

------------
SCF SETTINGS
------------
Hamiltonian:
 Density Functional     Method          .... DFT(GTOs)
 Exchange Functional    Exchange        .... PBE
   PBE kappa parameter   XKappa         ....  0.804000
   PBE mue parameter    XMuePBE         ....  0.219520
 Correlation Functional Correlation     .... PBE
   PBE beta parameter  CBetaPBE         ....  0.066725
 LDA part of GGA corr.  LDAOpt          .... PW91-LDA
 Gradients option       PostSCFGGA      .... off
 Hybrid DFT is turned on
   Fraction HF Exchange ScalHFX         ....  0.250000
   Scaling of DF-GGA-X  ScalDFX         ....  0.750000
   Scaling of DF-GGA-C  ScalDFC         ....  1.000000
   Scaling of DF-LDA-C  ScalLDAC        ....  1.000000
   Perturbative correction              ....  0.000000
   NL short-range parameter             ....  6.900000
 RI-approximation to the Coulomb term is turned on
   Number of AuxJ basis functions       .... 436
   RIJ-COSX (HFX calculated with COS-X)).... on


General Settings:
 Integral files         IntName         .... /dev/shm/3472798/uracil_s0_freq.inp-3472798/uracil_s0_freq
 Hartree-Fock type      HFTyp           .... RHF
 Total Charge           Charge          ....    0
 Multiplicity           Mult            ....    1
 Number of Electrons    NEL             ....   58
 Basis Dimension        Dim             ....  132
 Nuclear Repulsion      ENuc            ....    357.2559931453 Eh

Convergence Acceleration:
 AO-DIIS                CNVDIIS         .... on
   Start iteration      DIISMaxIt       ....    12
   Startup error        DIISStart       ....  0.200000
   # of expansion vecs  DIISMaxEq       ....     5
   Bias factor          DIISBfac        ....   1.050
   Max. coefficient     DIISMaxC        ....  10.000
 MO-DIIS                CNVKDIIS        .... off
 Trust-Rad. Augm. Hess. CNVTRAH         .... auto
   Auto Start mean grad. ratio tolernc. ....  1.125000
   Auto Start start iteration           ....    50
   Auto Start num. interpolation iter.  ....    10
   Max. Number of Micro iterations      ....    24
   Max. Number of Macro iterations      .... Maxiter - #DIIS iter
   Number of Davidson start vectors     ....     2
   Converg. threshold    (grad. norm)   ....   1.000e-05
   Grad. Scal. Fac. for Micro threshold ....   0.100
   Minimum threshold for Micro iter.    ....   1.000e-02
   NR start threshold (gradient norm)   ....   1.000e-04
   Initial trust radius                 ....   0.400
   Minimum AH scaling param. (alpha)    ....   1.000
   Maximum AH scaling param. (alpha)    .... 1000.000
   Quad. conv. algorithm                .... NR
   White noise on init. David. guess    .... on
   Maximum white noise                  ....   0.010
   Pseudo random numbers                .... off
   Inactive MOs                         .... canonical
   Orbital update algorithm             .... Taylor
   Preconditioner                       .... Diag
   Full preconditioner red. dimension   ....   250
 SOSCF                  CNVSOSCF        .... on
   Start iteration      SOSCFMaxIt      ....   150
   Startup grad/error   SOSCFStart      ....  0.003300
   Hessian update       SOSCFHessUp     .... L-BFGS
 Level Shifting         CNVShift        .... on
   Level shift para.    LevelShift      ....    0.2500
   Turn off err/grad.   ShiftErr        ....    0.0010
 Zerner damping         CNVZerner       .... off
 Static damping         CNVDamp         .... on
   Fraction old density DampFac         ....    0.7000
   Max. Damping (<1)    DampMax         ....    0.9800
   Min. Damping (>=0)   DampMin         ....    0.0000
   Turn off err/grad.   DampErr         ....    0.1000

SCF Procedure:
 Maximum # iterations   MaxIter         ....   125
 SCF integral mode      SCFMode         .... Direct
   Integral package                     .... SHARK and LIBINT hybrid scheme
 Reset frequency        DirectResetFreq ....    20
 Integral Threshold     Thresh          ....  2.500e-11 Eh
 Primitive CutOff       TCut            ....  2.500e-12 Eh

Convergence Tolerance:
 Convergence Check Mode ConvCheckMode   .... Total+1el-Energy
 Convergence forced     ConvForced      .... 0
 Energy Change          TolE            ....  1.000e-08 Eh
 1-El. energy change                    ....  1.000e-05 Eh
 Orbital Gradient       TolG            ....  1.000e-05
 Orbital Rotation angle TolX            ....  1.000e-05
 DIIS Error             TolErr          ....  5.000e-07

------------------------------
INITIAL GUESS: MODEL POTENTIAL
------------------------------
Loading Hartree-Fock densities                     ... done
Calculating cut-offs                               ... done
Initializing the effective Hamiltonian             ... done
Setting up the integral package (SHARK)            ... done
Starting the Coulomb interaction                   ... done (   0.0 sec)
Making the grid                                    ... done (   0.1 sec)
Mapping shells                                     ... done
Starting the XC term evaluation                    ... done (   0.0 sec)
  promolecular density results
     # of electrons  =     58.000653128
     EX              =    -51.061097528
     EC              =     -1.962409011
     EX+EC           =    -53.023506538
Transforming the Hamiltonian                       ... done (   0.0 sec)
Diagonalizing the Hamiltonian                      ... done (   0.0 sec)
Back transforming the eigenvectors                 ... done (   0.0 sec)
Now organizing SCF variables                       ... done
                      ------------------
                      INITIAL GUESS DONE (   0.1 sec)
                      ------------------
             **** ENERGY FILE WAS UPDATED (/dev/shm/3472798/uracil_s0_freq.inp-3472798/uracil_s0_freq.en.tmp) ****
Finished Guess after   0.2 sec
Maximum memory used throughout the entire GUESS-calculation: 9.5 MB


           ************************************************************
           *        Program running with 16 parallel MPI-processes    *
           *              working on a common directory               *
           ************************************************************

-------------------------------------------------------------------------------------------
                                      ORCA LEAN-SCF
                              memory conserving SCF solver
-------------------------------------------------------------------------------------------

----------------------------------------D-I-I-S--------------------------------------------
Iteration    Energy (Eh)           Delta-E    RMSDP     MaxDP     DIISErr   Damp  Time(sec)
-------------------------------------------------------------------------------------------
               ***  Starting incremental Fock matrix formation  ***
    1    -413.8249941339362863     0.00e+00  5.83e-03  1.45e-01  2.61e-01  0.700   0.5
    2    -413.9435753734417744    -1.19e-01  3.65e-03  9.05e-02  1.02e-01  0.700   0.3
                               ***Turning on AO-DIIS***
    3    -413.9844730363129770    -4.09e-02  1.17e-03  1.80e-02  3.97e-02  0.700   0.2
    4    -414.0111985734154700    -2.67e-02  1.78e-03  2.77e-02  1.98e-02  0.000   0.2
    5    -414.0711688030799564    -6.00e-02  4.23e-04  7.96e-03  8.19e-03  0.000   0.2
                              *** Initializing SOSCF ***
---------------------------------------S-O-S-C-F--------------------------------------
Iteration    Energy (Eh)           Delta-E    RMSDP     MaxDP     MaxGrad    Time(sec)
--------------------------------------------------------------------------------------
    6    -414.0715079125596390    -3.39e-04  1.24e-04  2.42e-03  1.21e-03     0.2
               *** Restarting incremental Fock matrix formation ***
    7    -414.0715210837632299    -1.32e-05  7.75e-05  1.44e-03  2.40e-04     0.4
    8    -414.0715218428272806    -7.59e-07  3.50e-05  6.35e-04  4.48e-04     0.3
    9    -414.0715244770860295    -2.63e-06  2.13e-05  3.72e-04  1.14e-04     0.3
   10    -414.0715245433343057    -6.62e-08  7.12e-06  1.58e-04  5.54e-05     0.3
   11    -414.0715246738894280    -1.31e-07  2.97e-06  5.47e-05  1.80e-05     0.3
   12    -414.0715246754251098    -1.54e-09  1.59e-06  3.12e-05  2.32e-05     0.3
                 **** Energy Check signals convergence ****

               *****************************************************
               *                     SUCCESS                       *
               *           SCF CONVERGED AFTER  12 CYCLES          *
               *****************************************************

Recomputing exchange energy using gridx3       ... done (    0.478 sec)
Old exchange energy                            :    -12.950246689 Eh
New exchange energy                            :    -12.950243004 Eh
Exchange energy change after final integration :      0.000003685 Eh
Total energy after final integration           :   -414.071520991 Eh
             **** ENERGY FILE WAS UPDATED (/dev/shm/3472798/uracil_s0_freq.inp-3472798/uracil_s0_freq.en.tmp) ****

----------------
TOTAL SCF ENERGY
----------------

Total Energy       :       -414.07152099070942 Eh          -11267.45891 eV

Components:
Nuclear Repulsion  :        357.25599314529694 Eh            9721.42980 eV
Electronic Energy  :       -771.32751782072205 Eh          -20988.88881 eV
One Electron Energy:      -1271.40215062353332 Eh          -34596.61138 eV
Two Electron Energy:        500.07463280281127 Eh           13607.72256 eV

Virial components:
Potential Energy   :       -824.69582540072759 Eh          -22441.11429 eV
Kinetic Energy     :        410.62430441001817 Eh           11173.65538 eV
Virial Ratio       :          2.00839506221056

DFT components:
N(Alpha)           :       29.000004774263 electrons
N(Beta)            :       29.000004774263 electrons
N(Total)           :       58.000009548525 electrons
E(X)               :      -38.823339727300 Eh       
E(C)               :       -1.980813142421 Eh       
E(XC)              :      -40.804152869721 Eh       

---------------
SCF CONVERGENCE
---------------

  Last Energy change         ...    1.5357e-09  Tolerance :   1.0000e-08
  Last MAX-Density change    ...    3.1207e-05  Tolerance :   1.0000e-07
  Last RMS-Density change    ...    1.5937e-06  Tolerance :   5.0000e-09
  Last DIIS Error            ...    1.2143e-03  Tolerance :   5.0000e-07
  Last Orbital Gradient      ...    2.3184e-05  Tolerance :   1.0000e-05
  Last Orbital Rotation      ...    2.3573e-05  Tolerance :   1.0000e-05


----------------
ORBITAL ENERGIES
----------------

  NO   OCC          E(Eh)            E(eV) 
   0   2.0000     -19.196322      -522.3585 
   1   2.0000     -19.188830      -522.1546 
   2   2.0000     -14.470108      -393.7517 
   3   2.0000     -14.449141      -393.1811 
   4   2.0000     -10.387798      -282.6663 
   5   2.0000     -10.353117      -281.7226 
   6   2.0000     -10.323144      -280.9070 
   7   2.0000     -10.255441      -279.0647 
   8   2.0000      -1.106465       -30.1084 
   9   2.0000      -1.069081       -29.0912 
  10   2.0000      -1.007336       -27.4110 
  11   2.0000      -0.950624       -25.8678 
  12   2.0000      -0.820795       -22.3350 
  13   2.0000      -0.714812       -19.4510 
  14   2.0000      -0.687146       -18.6982 
  15   2.0000      -0.619647       -16.8614 
  16   2.0000      -0.584462       -15.9040 
  17   2.0000      -0.540871       -14.7178 
  18   2.0000      -0.507108       -13.7991 
  19   2.0000      -0.489821       -13.3287 
  20   2.0000      -0.468399       -12.7458 
  21   2.0000      -0.441296       -12.0083 
  22   2.0000      -0.436451       -11.8764 
  23   2.0000      -0.429051       -11.6751 
  24   2.0000      -0.392238       -10.6733 
  25   2.0000      -0.315787        -8.5930 
  26   2.0000      -0.305113        -8.3025 
  27   2.0000      -0.283226        -7.7070 
  28   2.0000      -0.268843        -7.3156 
  29   0.0000      -0.042289        -1.1507 
  30   0.0000       0.014829         0.4035 
  31   0.0000       0.039323         1.0700 
  32   0.0000       0.090763         2.4698 
  33   0.0000       0.096065         2.6141 
  34   0.0000       0.127097         3.4585 
  35   0.0000       0.132759         3.6125 
  36   0.0000       0.186714         5.0807 
  37   0.0000       0.201872         5.4932 
  38   0.0000       0.236448         6.4341 
  39   0.0000       0.269901         7.3444 
*Only the first 10 virtual orbitals were printed.

                    ********************************
                    * MULLIKEN POPULATION ANALYSIS *
                    ********************************

-----------------------
MULLIKEN ATOMIC CHARGES
-----------------------
   0 C :    0.239040
   1 N :   -0.230254
   2 C :    0.264256
   3 N :   -0.198210
   4 C :    0.145111
   5 C :   -0.189112
   6 O :   -0.243865
   7 H :    0.053634
   8 O :   -0.236995
   9 H :    0.167569
  10 H :    0.167692
  11 H :    0.061135
Sum of atomic charges:   -0.0000000

--------------------------------
MULLIKEN REDUCED ORBITAL CHARGES
--------------------------------
  0 C s       :     2.980014  s :     2.980014
      pz      :     0.848505  p :     2.659725
      px      :     0.958912
      py      :     0.852308
      dz2     :     0.012851  d :     0.121221
      dxz     :     0.011345
      dyz     :     0.028842
      dx2y2   :     0.029791
      dxy     :     0.038392

  1 N s       :     3.401327  s :     3.401327
      pz      :     1.490152  p :     3.810992
      px      :     1.191206
      py      :     1.129634
      dz2     :     0.002417  d :     0.017936
      dxz     :     0.002113
      dyz     :     0.003875
      dx2y2   :     0.005326
      dxy     :     0.004205

  2 C s       :     2.960499  s :     2.960499
      pz      :     0.853150  p :     2.632210
      px      :     0.883836
      py      :     0.895224
      dz2     :     0.021342  d :     0.143035
      dxz     :     0.022143
      dyz     :     0.023446
      dx2y2   :     0.050064
      dxy     :     0.026039

  3 N s       :     3.372491  s :     3.372491
      pz      :     1.481998  p :     3.805016
      px      :     1.159908
      py      :     1.163109
      dz2     :     0.003088  d :     0.020703
      dxz     :     0.003997
      dyz     :     0.002666
      dx2y2   :     0.006285
      dxy     :     0.004668

  4 C s       :     3.048731  s :     3.048731
      pz      :     0.912270  p :     2.752340
      px      :     0.877370
      py      :     0.962701
      dz2     :     0.009268  d :     0.053817
      dxz     :     0.006304
      dyz     :     0.011755
      dx2y2   :     0.010475
      dxy     :     0.016015

  5 C s       :     3.228456  s :     3.228456
      pz      :     1.056977  p :     2.931592
      px      :     0.976134
      py      :     0.898480
      dz2     :     0.003402  d :     0.029064
      dxz     :     0.003605
      dyz     :     0.005538
      dx2y2   :     0.008731
      dxy     :     0.007789

  6 O s       :     3.737946  s :     3.737946
      pz      :     1.419170  p :     4.486759
      px      :     1.538126
      py      :     1.529462
      dz2     :     0.003568  d :     0.019160
      dxz     :     0.003723
      dyz     :     0.003812
      dx2y2   :     0.003098
      dxy     :     0.004958

  7 H s       :     0.922069  s :     0.922069
      pz      :     0.007977  p :     0.024296
      px      :     0.007863
      py      :     0.008456

  8 O s       :     3.738418  s :     3.738418
      pz      :     1.472175  p :     4.479791
      px      :     1.656201
      py      :     1.351415
      dz2     :     0.002330  d :     0.018786
      dxz     :     0.001115
      dyz     :     0.004871
      dx2y2   :     0.005461
      dxy     :     0.005009

  9 H s       :     0.789513  s :     0.789513
      pz      :     0.010276  p :     0.042918
      px      :     0.024608
      py      :     0.008034

 10 H s       :     0.787938  s :     0.787938
      pz      :     0.011477  p :     0.044370
      px      :     0.007725
      py      :     0.025168

 11 H s       :     0.915865  s :     0.915865
      pz      :     0.004535  p :     0.023001
      px      :     0.013832
      py      :     0.004634



                     *******************************
                     * LOEWDIN POPULATION ANALYSIS *
                     *******************************

----------------------
LOEWDIN ATOMIC CHARGES
----------------------
   0 C :    0.071807
   1 N :   -0.006732
   2 C :    0.082015
   3 N :    0.016778
   4 C :    0.060838
   5 C :   -0.124626
   6 O :   -0.213508
   7 H :    0.052177
   8 O :   -0.194581
   9 H :    0.105824
  10 H :    0.104658
  11 H :    0.045350

-------------------------------
LOEWDIN REDUCED ORBITAL CHARGES
-------------------------------
  0 C s       :     2.830939  s :     2.830939
      pz      :     0.863258  p :     2.824685
      px      :     0.994428
      py      :     0.966999
      dz2     :     0.027465  d :     0.272569
      dxz     :     0.023297
      dyz     :     0.062257
      dx2y2   :     0.067540
      dxy     :     0.092009

  1 N s       :     3.070697  s :     3.070697
      pz      :     1.452599  p :     3.885666
      px      :     1.224807
      py      :     1.208260
      dz2     :     0.005386  d :     0.050369
      dxz     :     0.005547
      dyz     :     0.009983
      dx2y2   :     0.016351
      dxy     :     0.013101

  2 C s       :     2.799206  s :     2.799206
      pz      :     0.896918  p :     2.802371
      px      :     0.946587
      py      :     0.958866
      dz2     :     0.040885  d :     0.316408
      dxz     :     0.049050
      dyz     :     0.051832
      dx2y2   :     0.116883
      dxy     :     0.057758

  3 N s       :     3.045352  s :     3.045352
      pz      :     1.452199  p :     3.882677
      px      :     1.219251
      py      :     1.211227
      dz2     :     0.006391  d :     0.055194
      dxz     :     0.009924
      dyz     :     0.006466
      dx2y2   :     0.018398
      dxy     :     0.014015

  4 C s       :     2.850985  s :     2.850985
      pz      :     0.930703  p :     2.958619
      px      :     0.991076
      py      :     1.036840
      dz2     :     0.020258  d :     0.129558
      dxz     :     0.014200
      dyz     :     0.027145
      dx2y2   :     0.026918
      dxy     :     0.041037

  5 C s       :     2.875845  s :     2.875845
      pz      :     1.069591  p :     3.167084
      px      :     1.042524
      py      :     1.054969
      dz2     :     0.007804  d :     0.081697
      dxz     :     0.009390
      dyz     :     0.013893
      dx2y2   :     0.025766
      dxy     :     0.024843

  6 O s       :     3.543690  s :     3.543690
      pz      :     1.451982  p :     4.637509
      px      :     1.595650
      py      :     1.589877
      dz2     :     0.004531  d :     0.032310
      dxz     :     0.006834
      dyz     :     0.007035
      dx2y2   :     0.004514
      dxy     :     0.009395

  7 H s       :     0.875726  s :     0.875726
      pz      :     0.024194  p :     0.072097
      px      :     0.024349
      py      :     0.023554

  8 O s       :     3.544684  s :     3.544684
      pz      :     1.479049  p :     4.618215
      px      :     1.678826
      py      :     1.460340
      dz2     :     0.004273  d :     0.031682
      dxz     :     0.001492
      dyz     :     0.007083
      dx2y2   :     0.009673
      dxy     :     0.009162

  9 H s       :     0.770451  s :     0.770451
      pz      :     0.034065  p :     0.123725
      px      :     0.067303
      py      :     0.022357

 10 H s       :     0.770632  s :     0.770632
      pz      :     0.035561  p :     0.124710
      px      :     0.022540
      py      :     0.066608

 11 H s       :     0.886483  s :     0.886483
      pz      :     0.013845  p :     0.068166
      px      :     0.039627
      py      :     0.014694



                      *****************************
                      * MAYER POPULATION ANALYSIS *
                      *****************************

  NA   - Mulliken gross atomic population
  ZA   - Total nuclear charge
  QA   - Mulliken gross atomic charge
  VA   - Mayer's total valence
  BVA  - Mayer's bonded valence
  FA   - Mayer's free valence

  ATOM       NA         ZA         QA         VA         BVA        FA
  0 C      5.7610     6.0000     0.2390     4.2625     4.2625     0.0000
  1 N      7.2303     7.0000    -0.2303     3.1063     3.1063    -0.0000
  2 C      5.7357     6.0000     0.2643     4.3432     4.3432    -0.0000
  3 N      7.1982     7.0000    -0.1982     3.2459     3.2459    -0.0000
  4 C      5.8549     6.0000     0.1451     3.8796     3.8796     0.0000
  5 C      6.1891     6.0000    -0.1891     3.8500     3.8500     0.0000
  6 O      8.2439     8.0000    -0.2439     2.2780     2.2780    -0.0000
  7 H      0.9464     1.0000     0.0536     1.0036     1.0036     0.0000
  8 O      8.2370     8.0000    -0.2370     2.2779     2.2779    -0.0000
  9 H      0.8324     1.0000     0.1676     1.0086     1.0086     0.0000
 10 H      0.8323     1.0000     0.1677     0.9926     0.9926    -0.0000
 11 H      0.9389     1.0000     0.0611     0.9848     0.9848     0.0000

  Mayer bond orders larger than 0.100000
B(  0-C ,  1-N ) :   1.0235 B(  0-C ,  5-C ) :   1.0545 B(  0-C ,  8-O ) :   2.1041 
B(  1-N ,  2-C ) :   1.0922 B(  1-N ,  9-H ) :   0.9000 B(  2-C ,  3-N ) :   1.0443 
B(  2-C ,  6-O ) :   2.1219 B(  3-N ,  4-C ) :   1.1588 B(  3-N , 10-H ) :   0.9150 
B(  4-C ,  5-C ) :   1.6777 B(  4-C , 11-H ) :   0.9562 B(  5-C ,  7-H ) :   0.9731 


-------
TIMINGS
-------

Total SCF time: 0 days 0 hours 0 min 4 sec 

Total time                  ....       4.231 sec
Sum of individual times     ....       4.219 sec  ( 99.7%)

SCF preparation             ....       0.120 sec  (  2.8%)
Fock matrix formation       ....       3.961 sec  ( 93.6%)
  Startup                   ....       0.007 sec  (  0.2% of F)
  Split-RI-J                ....       0.220 sec  (  5.5% of F)
  Chain of spheres X        ....       2.725 sec  ( 68.8% of F)
  XC integration            ....       0.964 sec  ( 24.3% of F)
    XC Preparation          ....       0.000 sec  (  0.0% of XC)
    Basis function eval.    ....       0.340 sec  ( 35.2% of XC)
    Density eval.           ....       0.123 sec  ( 12.8% of XC)
    XC-Functional eval.     ....       0.092 sec  (  9.6% of XC)
    XC-Potential eval.      ....       0.177 sec  ( 18.4% of XC)
Diagonalization             ....       0.000 sec  (  0.0%)
Density matrix formation    ....       0.014 sec  (  0.3%)
Total Energy calculation    ....       0.013 sec  (  0.3%)
Population analysis         ....       0.012 sec  (  0.3%)
Orbital Transformation      ....       0.010 sec  (  0.2%)
Orbital Orthonormalization  ....       0.000 sec  (  0.0%)
DIIS solution               ....       0.059 sec  (  1.4%)
SOSCF solution              ....       0.030 sec  (  0.7%)
Finished LeanSCF after   4.2 sec

Maximum memory used throughout the entire LEANSCF-calculation: 19.3 MB


           ************************************************************
           *        Program running with 16 parallel MPI-processes    *
           *              working on a common directory               *
           ************************************************************

------------------------------------------------------------------------------
                         ORCA PROPERTY INTEGRAL CALCULATIONS
------------------------------------------------------------------------------

GBWName                                   ... /dev/shm/3472798/uracil_s0_freq.inp-3472798/uracil_s0_freq.gbw
Number of atoms                           ...     12
Number of basis functions                 ...    132
Max core memory                           ...   2000 MB

Dipole integrals                          ... YES
Quadrupole integrals                      ...  NO
Linear momentum integrals                 ...  NO
Angular momentum integrals                ...  NO
Higher moments length integrals           ...  NO
Higher moments velocity integrals         ...  NO
Kinetic energy integrals                  ...  NO
GIAO right hand sides                     ...  NO
GIAO dipole derivative integrals          ...  NO
SOC integrals                             ...  NO
EPR diamagnetic integrals (GIAO)          ...  NO
EPR gauge integrals                       ...  NO
Field gradient integrals                  ...  NO (   0 nuclei)
Spin-dipole/Fermi contact integrals       ...  NO (   0 nuclei)
Contact density integrals                 ...  NO (   0 nuclei)
Nucleus-orbit integrals                   ...  NO (   0 nuclei)
Geometric perturbations                   ... YES (  12 nuclei)

Choice of electric origin   ... Center of mass
Position of electric origin ... (  1.1745, -0.4295,  0.1707) 
Choice of magnetic origin   ... GIAO
Position of magnetic origin ... (  0.0000,  0.0000,  0.0000) 

Calculating integrals                     ... Electric Dipole (Length)     done (  0.0 sec)
Calculating integrals                     ... Geometrical perturbation right hand sides

-----------------------
GEOMETRIC PERTURBATIONS (12 nuclei)
-----------------------

MaxCore                            ...   2000 MB
Number of batches                  ...      1

BATCH   0: Atoms    0 -   11 ( 36 perturbations)
   => H(core) and overlap derivative integrals     ... done (     0.0 sec)
   => Making and storing internal U-coefficients   ... done (     0.0 sec)
   => RI-J derivative integrals                    ... done (     0.3 sec)
   => RI-J response operators                      ... done (     0.0 sec)
   => Chain of spheres derivative integrals        ... done (     2.4 sec)
   => Chain of spheres response operator           ... done (     2.4 sec)
   => XC derivative integrals                      ... done (     4.3 sec)
   => XC response operators                        ... done (     1.1 sec)
   => Completing and storing right hand sides      ... done (     0.0 sec)
   => Total time for right hand sides =  10.8 sec

  geometrical perturbations done ( 10.8 sec)

Property integrals calculated in  10.8 sec

Maximum memory used throughout the entire PROPINT-calculation: 79.9 MB


-------------------------------------------------------------------------------
                          DFT DISPERSION CORRECTION                            
                                                                               
                                DFTD4 V3.4.0                                   
-------------------------------------------------------------------------------
The PBE0 functional is recognized
Active option DFTDOPT                   ...         5   

-------------------------   ----------------
Dispersion correction           -0.009750613
-------------------------   ----------------


-------------------------   --------------------
FINAL SINGLE POINT ENERGY      -414.081271603853
-------------------------   --------------------



           ************************************************************
           *        Program running with 16 parallel MPI-processes    *
           *              working on a common directory               *
           ************************************************************
------------------------------------------------------------------------------
                            ORCA SCF RESPONSE CALCULATION
------------------------------------------------------------------------------

GBWName                                 ... /dev/shm/3472798/uracil_s0_freq.inp-3472798/uracil_s0_freq.gbw
Number of atoms                         ...     12
Number of basis functions               ...    132
Max core memory                         ...   2000 MB

Electric field perturbation             ...  NO
Quadrupolar field perturbation          ...  NO
Magnetic field perturbation (no GIAO)   ...  NO
Magnetic field perturbation (with GIAO) ...  NO
Linear momentum (velocity) perturbation ...  NO
Spin-orbit coupling perturbation        ...  NO
Choice of electric origin               ... Center of mass
Position of electric origin             ...     1.174538    -0.429507     0.170705
Choice of magnetic origin               ... GIAO
Position of magnetic origin             ...     0.000000     0.000000     0.000000
Nuclear geometric perturbations         ... YES (  36 perturbations)
Nucleus-orbit perturbations             ...  NO (   0 perturbations)
Spin-dipole/Fermi contact perturbations ...  NO (   0 perturbations)

Total number of real perturbations      ...     36
Total number of imaginary perturbations ...      0
Total number of triplet perturbations   ...      0
Total number of SOC perturbations       ...      0

Using XC Grid                  ... (/dev/shm/3472798/uracil_s0_freq.inp-3472798/uracil_s0_freq.grid_cpscf.tmp) 
Recalculating density on grid  ... (/dev/shm/3472798/uracil_s0_freq.inp-3472798/uracil_s0_freq.grho_cpscf0.tmp) done
Calculating the xc-kernel      ... (/dev/shm/3472798/uracil_s0_freq.inp-3472798/uracil_s0_freq.fxc_cpscf0.tmp) done

                                **********************
                                * REAL PERTURBATIONS *
                                **********************



-------------------
SHARK CP-SCF DRIVER
-------------------

Dimension of the orbital basis          ...    132
Dimension of the CPSCF-problem          ...   2987
Number of operators                     ...      1
Max. number of iterations               ...    128
Convergence Tolerance                   ... 1.0e-04
Number of perturbations                 ...     36
Perturbation type                       ... REAL

----------------------------
POPLE LINEAR EQUATION SOLVER
----------------------------

  ITERATION   0:   ||err||_max =   5.3755e-01 (   0.9 sec   0/ 36 done)
  ITERATION   1:   ||err||_max =   4.7351e-02 (   0.9 sec   0/ 36 done)
  ITERATION   2:   ||err||_max =   2.2898e-02 (   0.9 sec   0/ 36 done)
  ITERATION   3:   ||err||_max =   6.0265e-03 (   0.9 sec   0/ 36 done)
  ITERATION   4:   ||err||_max =   2.7973e-03 (   0.9 sec   0/ 36 done)
  ITERATION   5:   ||err||_max =   7.1545e-04 (   0.9 sec   5/ 36 done)
  ITERATION   6:   ||err||_max =   1.8607e-04 (   0.8 sec  17/ 36 done)
  ITERATION   7:   ||err||_max =   8.4963e-05 (   0.5 sec  36/ 36 done)

CP-SCF equations solved in   6.5 sec
Response densities calculated in   0.0 sec

Maximum memory used throughout the entire SCFRESP-calculation: 78.7 MB


           ************************************************************
           *        Program running with 16 parallel MPI-processes    *
           *              working on a common directory               *
           ************************************************************

------------------------------------------------------------------------------
                              ORCA PROPERTY CALCULATIONS
------------------------------------------------------------------------------

GBWName                                 ... /dev/shm/3472798/uracil_s0_freq.inp-3472798/uracil_s0_freq.gbw
Number of atoms                         ...     12
Number of basis functions               ...    132
Max core memory                         ...   2000 MB

Electric properties:
Dipole moment                           ... YES
Quadrupole moment                       ...  NO
Static polarizability (Dipole/Dipole)   ...  NO
Static polarizability (Dipole/Quad.)    ...  NO
Static polarizability (Quad./Quad.)     ...  NO
Static polarizability (Velocity)        ...  NO

Atomic electric properties:
Dipole moment                           ...  NO
Quadrupole moment                       ...  NO
Static polarizability                   ...  NO

Choice of electric origin               ... Center of mass
Position of electric origin             ...     1.174538    -0.429507     0.170705

General magnetic properties:
Magnetizability                         ...  NO

EPR properties:
g-Tensor (aka g-matrix)                 ...  NO
Zero-Field splitting spin-orbit         ...  NO
Zero-field splitting spin-spin          ...  NO
Hyperfine couplings                     ...  NO (   0 nuclei)
Quadrupole couplings                    ...  NO (   0 nuclei)
Contact density                         ...  NO (   0 nuclei)

NMR properties:
Chemical shifts                         ...  NO (   0 nuclei)
Spin-rotation constants                 ...  NO (   0 nuclei)
Spin-spin couplings                     ...  NO (   0 nuclei,    0 pairs)

Choice of magnetic origin               ... GIAO
Position of magnetic origin             ...     0.000000     0.000000     0.000000

Properties with geometric perturbations:
SCF Hessian                             ... YES
IR spectrum                             ... YES
VCD spectrum                            ...  NO
X-ray spectroscopy properties:
SCF XES/XAS/RIXS spectra                ...  NO


-------------
DIPOLE MOMENT
-------------

Method             : SCF
Type of density    : Electron Density
Multiplicity       :   1
Irrep              :   0
Energy             :  -414.0715209907094163 Eh
Relativity type    : 
Basis              : AO
                                X                 Y                 Z
Electronic contribution:      2.097355707       0.168207850      -0.798813094
Nuclear contribution   :     -3.464089905      -1.106846415       0.985092744
                        -----------------------------------------
Total Dipole Moment    :     -1.366734198      -0.938638566       0.186279650
                        -----------------------------------------
Magnitude (a.u.)       :      1.668443836
Magnitude (Debye)      :      4.240847205



--------------------
Rotational spectrum 
--------------------
 
Rotational constants in cm-1:             0.130127             0.067574             0.044477 
Rotational constants in MHz :          3901.109384          2025.805023          1333.389791 

Dipole components along the rotational axes: 
x,y,z [a.u.] :    -0.552531    -1.574298     0.000306 
x,y,z [Debye]:    -1.404421    -4.001548     0.000779 

 

Dipole moment calculation done in   0.0 sec 

-----------
SCF HESSIAN
-----------

Occupied/Occupied contributions to the Hessian:
   => Occupied/Occupied contributions              ... done (  0.0 sec)
Perturbed density contributions to the Hessian:
   => Perturbed density contributions              ... done (  0.0 sec)
Explicit contributions to the Hessian:
   => Nuclear repulsion Hessian                    ... done (  0.0 sec)
   => HCore and overlap Hessian                    ... done (  0.2 sec)
   => RI-J Hessian                                 ... done (  0.5 sec)
   => COSX Hessian                                 ... done ( 17.3 sec)
   => XC-Hessian                                   ... done (  3.5 sec)
   => Van der Waals-Hessian                        ... done (  0.2 sec)
   => Explicit contributions done
Dipole derivatives                                 ... done (  0.0 sec)
Mass weighting the Hessian           ... done
Calculating normal modes             ... done
Scaling frequencies                  ... done

-----------------------
VIBRATIONAL FREQUENCIES
-----------------------

Scaling factor for frequencies =  1.000000000  (already applied!)

     0:       0.00 cm**-1
     1:       0.00 cm**-1
     2:       0.00 cm**-1
     3:       0.00 cm**-1
     4:       0.00 cm**-1
     5:       0.00 cm**-1
     6:     156.13 cm**-1
     7:     173.60 cm**-1
     8:     396.53 cm**-1
     9:     405.92 cm**-1
    10:     525.43 cm**-1
    11:     553.45 cm**-1
    12:     571.37 cm**-1
    13:     597.72 cm**-1
    14:     706.08 cm**-1
    15:     738.94 cm**-1
    16:     789.90 cm**-1
    17:     797.33 cm**-1
    18:     829.55 cm**-1
    19:     982.78 cm**-1
    20:     986.96 cm**-1
    21:    1000.68 cm**-1
    22:    1097.93 cm**-1
    23:    1211.69 cm**-1
    24:    1248.64 cm**-1
    25:    1390.97 cm**-1
    26:    1417.77 cm**-1
    27:    1441.29 cm**-1
    28:    1534.59 cm**-1
    29:    1719.41 cm**-1
    30:    1865.38 cm**-1
    31:    1900.50 cm**-1
    32:    3235.60 cm**-1
    33:    3280.54 cm**-1
    34:    3638.48 cm**-1
    35:    3677.34 cm**-1


------------
NORMAL MODES
------------

These modes are the Cartesian displacements weighted by the diagonal matrix
M(i,i)=1/sqrt(m[i]) where m[i] is the mass of the displaced atom
Thus, these vectors are normalized but *not* orthogonal

                  0          1          2          3          4          5    
      0       0.000000   0.000000   0.000000   0.000000   0.000000   0.000000
      1       0.000000   0.000000   0.000000   0.000000   0.000000   0.000000
      2       0.000000   0.000000   0.000000   0.000000   0.000000   0.000000
      3       0.000000   0.000000   0.000000   0.000000   0.000000   0.000000
      4       0.000000   0.000000   0.000000   0.000000   0.000000   0.000000
      5       0.000000   0.000000   0.000000   0.000000   0.000000   0.000000
      6       0.000000   0.000000   0.000000   0.000000   0.000000   0.000000
      7       0.000000   0.000000   0.000000   0.000000   0.000000   0.000000
      8       0.000000   0.000000   0.000000   0.000000   0.000000   0.000000
      9       0.000000   0.000000   0.000000   0.000000   0.000000   0.000000
     10       0.000000   0.000000   0.000000   0.000000   0.000000   0.000000
     11       0.000000   0.000000   0.000000   0.000000   0.000000   0.000000
     12       0.000000   0.000000   0.000000   0.000000   0.000000   0.000000
     13       0.000000   0.000000   0.000000   0.000000   0.000000   0.000000
     14       0.000000   0.000000   0.000000   0.000000   0.000000   0.000000
     15       0.000000   0.000000   0.000000   0.000000   0.000000   0.000000
     16       0.000000   0.000000   0.000000   0.000000   0.000000   0.000000
     17       0.000000   0.000000   0.000000   0.000000   0.000000   0.000000
     18       0.000000   0.000000   0.000000   0.000000   0.000000   0.000000
     19       0.000000   0.000000   0.000000   0.000000   0.000000   0.000000
     20       0.000000   0.000000   0.000000   0.000000   0.000000   0.000000
     21       0.000000   0.000000   0.000000   0.000000   0.000000   0.000000
     22       0.000000   0.000000   0.000000   0.000000   0.000000   0.000000
     23       0.000000   0.000000   0.000000   0.000000   0.000000   0.000000
     24       0.000000   0.000000   0.000000   0.000000   0.000000   0.000000
     25       0.000000   0.000000   0.000000   0.000000   0.000000   0.000000
     26       0.000000   0.000000   0.000000   0.000000   0.000000   0.000000
     27       0.000000   0.000000   0.000000   0.000000   0.000000   0.000000
     28       0.000000   0.000000   0.000000   0.000000   0.000000   0.000000
     29       0.000000   0.000000   0.000000   0.000000   0.000000   0.000000
     30       0.000000   0.000000   0.000000   0.000000   0.000000   0.000000
     31       0.000000   0.000000   0.000000   0.000000   0.000000   0.000000
     32       0.000000   0.000000   0.000000   0.000000   0.000000   0.000000
     33       0.000000   0.000000   0.000000   0.000000   0.000000   0.000000
     34       0.000000   0.000000   0.000000   0.000000   0.000000   0.000000
     35       0.000000   0.000000   0.000000   0.000000   0.000000   0.000000
                  6          7          8          9         10         11    
      0      -0.025746  -0.010566  -0.082696  -0.048376  -0.190512   0.168186
      1       0.025164   0.010279  -0.017547   0.047341  -0.215013  -0.238027
      2      -0.062262  -0.025448   0.026432  -0.117056  -0.008033  -0.165625
      3      -0.211082   0.017839  -0.310375   0.034977   0.057161   0.221088
      4       0.206299  -0.017428  -0.076924  -0.033808  -0.008417  -0.012425
      5      -0.510173   0.043114   0.097601   0.083690  -0.027039  -0.096504
      6      -0.024984   0.012703  -0.117521  -0.022058   0.217936  -0.090674
      7       0.024388  -0.012417  -0.010773   0.021696   0.063682   0.094259
      8      -0.060435   0.030743   0.043973  -0.053647  -0.064495   0.075455
      9       0.009528   0.141937  -0.125867  -0.060582   0.148952  -0.133106
     10      -0.009304  -0.138717  -0.142839   0.059477   0.328413   0.057876
     11       0.022996   0.343090  -0.006380  -0.146745   0.071103   0.078323
     12       0.007246  -0.010168  -0.077633   0.088660  -0.083853  -0.208301
     13      -0.007097   0.009917  -0.039203  -0.086589   0.124696   0.018888
     14       0.017483  -0.024605   0.017459   0.214177   0.085071   0.093820
     15      -0.028984  -0.128719  -0.135767  -0.070957  -0.263867   0.144709
     16       0.028309   0.125801   0.007944   0.069433   0.125509  -0.080049
     17      -0.070087  -0.311323   0.058466  -0.171916   0.159842  -0.092282
     18       0.103012  -0.088367   0.306672   0.007155   0.063690   0.051753
     19      -0.100806   0.086328   0.418498  -0.007727  -0.107542   0.261454
     20       0.249007  -0.213459   0.042442   0.017994  -0.069839   0.084402
     21       0.003727  -0.239081  -0.235500   0.012108  -0.138710   0.485981
     22      -0.003724   0.233723  -0.089904  -0.011735   0.250826   0.260659
     23       0.009114  -0.578308   0.061366   0.028960   0.158691  -0.096218
     24       0.127626   0.058530   0.438427   0.022851  -0.001408  -0.167748
     25      -0.124554  -0.057125  -0.161673  -0.022470  -0.299010  -0.160832
     26       0.308566   0.141433  -0.246383   0.056406  -0.120267   0.004358
     27      -0.184790   0.003896  -0.312442   0.144698  -0.021366   0.257061
     28       0.180573  -0.003785  -0.076902  -0.141022   0.397937  -0.210073
     29      -0.446674   0.009440   0.099772   0.348761   0.169241  -0.191558
     30       0.132987   0.146715  -0.201479   0.065011   0.127399  -0.052289
     31      -0.130009  -0.143395  -0.131353  -0.063236   0.334090   0.044862
     32       0.321446   0.354656   0.030928   0.156602   0.084084   0.041618
     33       0.051650  -0.028713  -0.086335   0.286070  -0.003423  -0.238125
     34      -0.050515   0.028009  -0.014456  -0.279619  -0.154825   0.117757
     35       0.124842  -0.069503   0.033678   0.691470  -0.061037   0.146101
                 12         13         14         15         16         17    
      0      -0.002498   0.024144  -0.022297   0.065283   0.087667  -0.008624
      1       0.010111  -0.023475   0.021809  -0.063875   0.176313   0.008703
      2       0.005162   0.058443  -0.053897   0.158011   0.034926  -0.021044
      3       0.113606   0.009297  -0.015325  -0.015958   0.210928   0.068038
      4       0.182921  -0.009230   0.015025   0.015486   0.037346  -0.066300
      5       0.026998   0.022806  -0.037200  -0.038197  -0.072293   0.163899
      6      -0.002626  -0.013480  -0.026220  -0.047572   0.125789  -0.183884
      7       0.255755   0.013076   0.025639   0.046530  -0.110257   0.179714
      8       0.104431  -0.032555  -0.063421  -0.114892  -0.095878  -0.444810
      9       0.080590  -0.023072   0.019489  -0.003361  -0.150392   0.063714
     10       0.037056   0.022466  -0.019045   0.003367   0.006186  -0.062464
     11      -0.018429  -0.055796   0.047165  -0.008346   0.064300   0.154461
     12      -0.082845  -0.009048  -0.019078   0.049523  -0.469949  -0.035277
     13      -0.235591   0.008929   0.018540  -0.048195  -0.139806   0.033942
     14      -0.061077  -0.022124  -0.045919   0.119253   0.138474  -0.084112
     15      -0.062680   0.007912   0.024957  -0.006659  -0.204475  -0.005039
     16      -0.211962  -0.007668  -0.024491   0.006636  -0.101680   0.004666
     17      -0.059669   0.019025   0.060552  -0.016350   0.043824  -0.011694
     18      -0.280870  -0.001042   0.001296   0.015483   0.200146   0.056488
     19       0.011856   0.000989  -0.001246  -0.015206  -0.119628  -0.055131
     20       0.121027  -0.002596   0.003037   0.037647  -0.131409   0.135836
     21      -0.152346  -0.054166   0.037998  -0.304114  -0.163084   0.172654
     22      -0.302610   0.052832  -0.037247   0.297485  -0.036718  -0.169087
     23      -0.059267  -0.130901   0.092097  -0.735921   0.048092   0.418202
     24       0.201291  -0.007226   0.000612  -0.018222   0.125552   0.002961
     25      -0.042695   0.007182  -0.000517   0.017647   0.230954  -0.002521
     26      -0.100544  -0.017498   0.001395  -0.044020   0.041461   0.006950
     27       0.096700  -0.052711   0.343096   0.085292   0.230501  -0.205922
     28       0.272970   0.051350  -0.335303  -0.083398  -0.005642   0.201500
     29       0.069862  -0.127025   0.828599   0.206478  -0.098157  -0.497891
     30       0.467323   0.346368   0.072741  -0.103698  -0.121791  -0.047690
     31      -0.027363  -0.338754  -0.071086   0.101453  -0.005343   0.046380
     32      -0.203607   0.837416   0.175836  -0.250851   0.047636  -0.114649
     33      -0.052030  -0.030394  -0.033904  -0.087356  -0.463580   0.080847
     34      -0.345356   0.029836   0.033004   0.085619  -0.233821  -0.079614
     35      -0.118267  -0.073667  -0.081789  -0.211744   0.095229   0.196710
                 18         19         20         21         22         23    
      0       0.109021  -0.005278   0.062840   0.072157   0.040388  -0.029214
      1      -0.106306   0.005176   0.023449   0.019822  -0.014276   0.016583
      2       0.263458  -0.012793  -0.016378  -0.021876  -0.022468   0.018784
      3      -0.030648   0.002936   0.086719  -0.269768  -0.029739  -0.014795
      4       0.030134  -0.002708  -0.138118  -0.152979   0.012528  -0.063052
      5      -0.074400   0.006530  -0.091720   0.049790   0.017373  -0.019375
      6       0.006794  -0.005676  -0.097207  -0.035376  -0.011698   0.039082
      7      -0.006618   0.005494  -0.021599  -0.032962   0.003009   0.054398
      8       0.016167  -0.013574   0.031493   0.001278   0.006050   0.005832
      9       0.006322  -0.003825   0.073187   0.164140   0.072756   0.038735
     10      -0.006293   0.003612   0.041917   0.303842  -0.101325  -0.029784
     11       0.015583  -0.009205  -0.013333   0.054937  -0.071060  -0.028056
     12      -0.021079   0.047961   0.068474  -0.133023  -0.068049  -0.053386
     13       0.020235  -0.046725  -0.003858  -0.075643  -0.018941   0.029092
     14      -0.050183   0.115660  -0.030072   0.024685   0.020518   0.033837
     15      -0.065591  -0.028949  -0.174440   0.142264  -0.048602   0.016697
     16       0.063981   0.028199   0.045367  -0.145808   0.098441   0.018418
     17      -0.158405  -0.069440   0.090566  -0.117943   0.059846   0.000551
     18      -0.002253   0.001107  -0.031433   0.024081  -0.020846  -0.004115
     19       0.002230  -0.001051   0.075959  -0.011213  -0.003082  -0.005404
     20      -0.005821   0.002790   0.043738  -0.014493   0.007383  -0.000485
     21       0.272345   0.175616  -0.386738   0.341843   0.497395  -0.176590
     22      -0.266691  -0.172500  -0.156259   0.042905   0.670640  -0.176420
     23       0.659410   0.426260   0.095760  -0.122694   0.065655   0.001598
     24      -0.031797   0.000633  -0.005149   0.010239  -0.001107  -0.005501
     25       0.031217  -0.000644   0.042025   0.081707   0.013702  -0.007067
     26      -0.077017   0.001557   0.019099   0.028773   0.005989  -0.000576
     27       0.095975  -0.001860   0.178237  -0.238667  -0.026286   0.011346
     28      -0.093650   0.001791  -0.624290  -0.377482  -0.012517  -0.215179
     29       0.231411  -0.005307  -0.326513  -0.053906   0.005870  -0.091772
     30       0.001925   0.020589   0.076106   0.316007   0.337599   0.524908
     31      -0.001980  -0.020300   0.045877   0.290906  -0.155249  -0.120591
     32       0.004882   0.049968  -0.013037  -0.013181  -0.202398  -0.265933
     33       0.160939  -0.305617   0.163176  -0.044503  -0.009930  -0.220114
     34      -0.157759   0.298947  -0.317842  -0.376271  -0.250598   0.588266
     35       0.389943  -0.739325  -0.194709  -0.135472  -0.097297   0.328946
                 24         25         26         27         28         29    
      0      -0.219977  -0.035871  -0.040095   0.191812  -0.132314  -0.043361
      1       0.082471   0.011240  -0.003321  -0.069181   0.056934  -0.055801
      2       0.124333   0.019373   0.015311  -0.107265   0.077718  -0.004554
      3       0.048405   0.018537   0.063685  -0.117785   0.061155  -0.013113
      4      -0.098656  -0.132157  -0.112987  -0.158841  -0.047921  -0.053597
      5      -0.059924  -0.061127  -0.072062  -0.015507  -0.044693  -0.016256
      6       0.107364   0.041514  -0.081633   0.251804  -0.018889   0.094744
      7       0.116610   0.041018  -0.095785   0.209847  -0.064353   0.072866
      8       0.002734  -0.000583  -0.004950  -0.019304  -0.018205  -0.009734
      9      -0.077367  -0.101417   0.039602   0.002138   0.251364  -0.023672
     10       0.009230  -0.013385   0.049950  -0.061443  -0.085101  -0.110846
     11       0.035740   0.036547   0.003808  -0.025730  -0.138396  -0.035027
     12       0.047523  -0.023968   0.052408  -0.013560  -0.189379   0.039488
     13      -0.076902   0.000455  -0.036863  -0.064966   0.072239   0.479033
     14      -0.050735   0.010102  -0.036579  -0.020651   0.107531   0.177322
     15       0.039963   0.109952  -0.075365  -0.082797   0.145492  -0.142862
     16      -0.023688   0.103451  -0.076184   0.024145   0.057765  -0.375789
     17      -0.026094  -0.003634   0.000357   0.043972  -0.036787  -0.092826
     18      -0.007471  -0.003685  -0.018457  -0.074575  -0.070207  -0.025728
     19       0.007274   0.020110   0.057454   0.019029   0.063724   0.003287
     20       0.006029   0.009657   0.030873   0.038557   0.054820   0.011976
     21       0.512836  -0.198372   0.251203  -0.113660  -0.148368   0.287191
     22       0.449482  -0.210824   0.255803   0.011008  -0.246674  -0.018203
     23      -0.030161  -0.003212  -0.000431   0.051389  -0.038343  -0.126065
     24       0.025244  -0.007532   0.027161  -0.015085   0.004205   0.046976
     25      -0.002760   0.014790   0.067925   0.069165  -0.024994   0.086251
     26      -0.011561   0.009090   0.016190   0.034170  -0.011831   0.015393
     27       0.124094  -0.093166  -0.084084  -0.194148   0.027798  -0.021115
     28      -0.498255   0.456201   0.684265   0.198585   0.129451  -0.022885
     29      -0.253066   0.223128   0.311636   0.160783   0.040855  -0.000529
     30      -0.239919   0.405242   0.055352  -0.693490  -0.711581   0.180088
     31       0.039784  -0.108417   0.052967   0.062929   0.081128  -0.158682
     32       0.115325  -0.211493  -0.001500   0.312365   0.327211  -0.138652
     33       0.022757   0.124211  -0.071867  -0.106439  -0.138326   0.347254
     34       0.006409  -0.529287   0.420855   0.198971  -0.190861  -0.369858
     35      -0.006861  -0.265399   0.199892   0.124436  -0.019964  -0.293112
                 30         31         32         33         34         35    
      0      -0.306442   0.064084   0.000118   0.002966  -0.000548  -0.000485
      1      -0.616606   0.119801  -0.000231   0.001629   0.000452  -0.000273
      2      -0.122275   0.021882  -0.000142  -0.000567   0.000411   0.000090
      3       0.014283  -0.034065   0.000022   0.000293   0.067394   0.000700
      4       0.102866   0.090795   0.000144  -0.000071   0.022374   0.000532
      5       0.035687   0.050825   0.000049  -0.000150  -0.018846  -0.000074
      6       0.057727   0.416108  -0.001301  -0.000166  -0.000403   0.000946
      7      -0.092561  -0.453012  -0.000233  -0.000294  -0.001119   0.000178
      8      -0.061321  -0.355414   0.000444  -0.000050  -0.000286  -0.000320
      9      -0.005428  -0.090421  -0.001472   0.000878  -0.000531  -0.021164
     10       0.013142   0.047722   0.000217  -0.000513   0.000090  -0.068615
     11       0.007574   0.056707   0.000696  -0.000571   0.000256  -0.018994
     12      -0.007428   0.009514   0.078241  -0.014171  -0.000046  -0.001573
     13      -0.054393  -0.011963   0.034914  -0.011222  -0.000220   0.001166
     14      -0.018898  -0.008772  -0.018242   0.001324  -0.000069   0.001122
     15       0.089086  -0.014902  -0.010898  -0.052205  -0.000406   0.000156
     16       0.124191  -0.016194   0.003973   0.056208  -0.000061   0.001112
     17       0.013384  -0.000391   0.006111   0.044298   0.000143   0.000385
     18      -0.039426  -0.244310   0.000241   0.000050   0.000216   0.000052
     19       0.039249   0.251609  -0.000078   0.000014  -0.000092  -0.000233
     20       0.032192   0.202850  -0.000131  -0.000015  -0.000127  -0.000116
     21      -0.176390   0.031649   0.104139   0.606445  -0.000718   0.000814
     22      -0.164615   0.034537  -0.098788  -0.596905   0.000351  -0.000632
     23       0.006353   0.000868  -0.082978  -0.491965   0.000438  -0.000591
     24       0.160475  -0.032113   0.000040  -0.000437   0.000176   0.000153
     25       0.373651  -0.083671   0.000152  -0.000507   0.000165   0.000233
     26       0.084460  -0.020499   0.000045  -0.000024  -0.000007   0.000031
     27       0.110370   0.039632  -0.000758  -0.000142  -0.916146  -0.005168
     28      -0.400390  -0.277434  -0.000078   0.000006  -0.296735  -0.001437
     29      -0.207736  -0.128566   0.000276   0.000057   0.259194   0.001553
     30       0.050246   0.384657   0.007236  -0.001990  -0.002301   0.290127
     31      -0.003486  -0.038793   0.006563  -0.003213  -0.005848   0.920139
     32      -0.022172  -0.174851  -0.000342  -0.000476  -0.001411   0.252108
     33      -0.037960   0.003682  -0.883268   0.143104   0.000552   0.006737
     34       0.021429  -0.002699  -0.371727   0.064117   0.000230   0.001991
     35       0.024285  -0.002528   0.214988  -0.033255  -0.000139  -0.001977


-----------
IR SPECTRUM
-----------

 Mode   freq       eps      Int      T**2         TX        TY        TZ
       cm**-1   L/(mol*cm) km/mol    a.u.
----------------------------------------------------------------------------
  6:    156.13   0.000312    1.57  0.000623  (-0.008951  0.008751 -0.021587)
  7:    173.60   0.000003    0.02  0.000006  ( 0.000896 -0.000843  0.002058)
  8:    396.53   0.004395   22.21  0.003459  (-0.052526 -0.023362  0.012407)
  9:    405.92   0.004174   21.09  0.003209  ( 0.020319 -0.019852  0.049011)
 10:    525.43   0.003520   17.79  0.002091  (-0.003204  0.041795  0.018268)
 11:    553.45   0.001234    6.23  0.000696  ( 0.022267 -0.007294 -0.012109)
 12:    571.37   0.000537    2.71  0.000293  ( 0.015928  0.003722 -0.005071)
 13:    597.72   0.009715   49.09  0.005072  ( 0.025499 -0.024917  0.061652)
 14:    706.08   0.011695   59.10  0.005169  ( 0.025765 -0.025194  0.062211)
 15:    738.94   0.002161   10.92  0.000913  (-0.010792  0.010585 -0.026156)
 16:    789.90   0.000373    1.89  0.000147  ( 0.002436  0.011369  0.003498)
 17:    797.33   0.009108   46.03  0.003565  (-0.021398  0.020914 -0.051669)
 18:    829.55   0.016506   83.41  0.006209  ( 0.028206 -0.027547  0.068227)
 19:    982.78   0.000040    0.20  0.000013  (-0.001218  0.001291 -0.003088)
 20:    986.96   0.000757    3.83  0.000239  (-0.005607  0.012421  0.007334)
 21:   1000.68   0.001248    6.31  0.000389  (-0.018071 -0.006132  0.004997)
 22:   1097.93   0.001453    7.34  0.000413  ( 0.014525  0.014215 -0.000252)
 23:   1211.69   0.014907   75.34  0.003839  (-0.002198  0.057089  0.023986)
 24:   1248.64   0.001697    8.57  0.000424  (-0.009336  0.015348  0.010066)
 25:   1390.97   0.000678    3.43  0.000152  ( 0.011192  0.004298 -0.002886)
 26:   1417.77   0.003893   19.67  0.000857  (-0.026127  0.004202  0.012515)
 27:   1441.29   0.019523   98.66  0.004227  ( 0.060278  0.015806 -0.018538)
 28:   1534.59   0.030793  155.62  0.006262  (-0.061430  0.031938  0.038318)
 29:   1719.41   0.016152   81.63  0.002931  ( 0.017369  0.049636  0.012885)
 30:   1865.38   0.131535  664.73  0.022005  (-0.026106 -0.138810 -0.045333)
 31:   1900.50   0.113736  574.78  0.018676  ( 0.089410 -0.077522 -0.068351)
 32:   3235.60   0.000358    1.81  0.000035  ( 0.004715 -0.002109 -0.002803)
 33:   3280.54   0.000662    3.34  0.000063  ( 0.003843 -0.005738 -0.003908)
 34:   3638.48   0.016757   84.68  0.001437  (-0.034601 -0.012381  0.009311)
 35:   3677.34   0.025847  130.62  0.002193  ( 0.015792  0.042759  0.010757)

* The epsilon (eps) is given for a Dirac delta lineshape.
** The dipole moment derivative (T) already includes vibrational overlap.

The first frequency considered to be a vibration is 6
The total number of vibrations considered is 30


--------------------------
THERMOCHEMISTRY AT 298.15K
--------------------------

Temperature         ...   298.15 K
Pressure            ...     1.00 atm
Total Mass          ...   112.09 AMU
Quasi RRHO          ...     True
Cut-Off Frequency   ...     1.00 cm^-1

Throughout the following assumptions are being made:
  (1) The electronic state is orbitally nondegenerate
  (2) There are no thermally accessible electronically excited states
  (3) Hindered rotations indicated by low frequency modes are not
      treated as such but are treated as vibrations and this may
      cause some error
  (4) All equations used are the standard statistical mechanics
      equations for an ideal gas
  (5) All vibrations are strictly harmonic

freq.     156.13  E(vib)   ...       0.40 
freq.     173.60  E(vib)   ...       0.38 
freq.     396.53  E(vib)   ...       0.20 
freq.     405.92  E(vib)   ...       0.19 
freq.     525.43  E(vib)   ...       0.13 
freq.     553.45  E(vib)   ...       0.12 
freq.     571.37  E(vib)   ...       0.11 
freq.     597.72  E(vib)   ...       0.10 
freq.     706.08  E(vib)   ...       0.07 
freq.     738.94  E(vib)   ...       0.06 
freq.     789.90  E(vib)   ...       0.05 
freq.     797.33  E(vib)   ...       0.05 
freq.     829.55  E(vib)   ...       0.04 
freq.     982.78  E(vib)   ...       0.02 
freq.     986.96  E(vib)   ...       0.02 
freq.    1000.68  E(vib)   ...       0.02 
freq.    1097.93  E(vib)   ...       0.02 
freq.    1211.69  E(vib)   ...       0.01 
freq.    1248.64  E(vib)   ...       0.01 
freq.    1390.97  E(vib)   ...       0.00 
freq.    1417.77  E(vib)   ...       0.00 
freq.    1441.29  E(vib)   ...       0.00 
freq.    1534.59  E(vib)   ...       0.00 
freq.    1719.41  E(vib)   ...       0.00 
freq.    1865.38  E(vib)   ...       0.00 
freq.    1900.50  E(vib)   ...       0.00 
freq.    3235.60  E(vib)   ...       0.00 
freq.    3280.54  E(vib)   ...       0.00 
freq.    3638.48  E(vib)   ...       0.00 
freq.    3677.34  E(vib)   ...       0.00 

------------
INNER ENERGY
------------

The inner energy is: U= E(el) + E(ZPE) + E(vib) + E(rot) + E(trans)
    E(el)   - is the total energy from the electronic structure calculation
              = E(kin-el) + E(nuc-el) + E(el-el) + E(nuc-nuc)
    E(ZPE)  - the the zero temperature vibrational energy from the frequency calculation
    E(vib)  - the the finite temperature correction to E(ZPE) due to population
              of excited vibrational states
    E(rot)  - is the rotational thermal energy
    E(trans)- is the translational thermal energy

Summary of contributions to the inner energy U:
Electronic energy                ...   -414.08127160 Eh
Zero point energy                ...      0.08855807 Eh      55.57 kcal/mol
Thermal vibrational correction   ...      0.00322154 Eh       2.02 kcal/mol
Thermal rotational correction    ...      0.00141627 Eh       0.89 kcal/mol
Thermal translational correction ...      0.00141627 Eh       0.89 kcal/mol
-----------------------------------------------------------------------
Total thermal energy                   -413.98665946 Eh


Summary of corrections to the electronic energy:
(perhaps to be used in another calculation)
Total thermal correction                  0.00605408 Eh       3.80 kcal/mol
Non-thermal (ZPE) correction              0.08855807 Eh      55.57 kcal/mol
-----------------------------------------------------------------------
Total correction                          0.09461215 Eh      59.37 kcal/mol


--------
ENTHALPY
--------

The enthalpy is H = U + kB*T
                kB is Boltzmann's constant
Total thermal energy              ...   -413.98665946 Eh 
Thermal Enthalpy correction       ...      0.00094421 Eh       0.59 kcal/mol
-----------------------------------------------------------------------
Total Enthalpy                    ...   -413.98571525 Eh


Note: Only C1 symmetry has been detected, increase convergence thresholds 
      if your molecule has a higher symmetry. Symmetry factor of 1.0 is   
      used for the rotational entropy correction. 
 

Note: Rotational entropy computed according to Herzberg 
Infrared and Raman Spectra, Chapter V,1, Van Nostrand Reinhold, 1945 
Point Group:  C1, Symmetry Number:   1  
Rotational constants in cm-1:     0.130127     0.067574     0.044477 

Vibrational entropy computed according to the QRRHO of S. Grimme
Chem.Eur.J. 2012 18 9955 using a reference frequency of 100.0 cm-1


-------
ENTROPY
-------

The entropy contributions are T*S = T*(S(el)+S(vib)+S(rot)+S(trans))
     S(el)   - electronic entropy
     S(vib)  - vibrational entropy
     S(rot)  - rotational entropy
     S(trans)- translational entropy
The entropies will be listed as multiplied by the temperature to get
units of energy

Electronic entropy                ...      0.00000000 Eh      0.00 kcal/mol
Vibrational entropy               ...      0.00505592 Eh      3.17 kcal/mol
Rotational entropy                ...      0.01321510 Eh      8.29 kcal/mol
Translational entropy             ...      0.01903286 Eh     11.94 kcal/mol
-----------------------------------------------------------------------
Final entropy term                ...      0.03730387 Eh     23.41 kcal/mol

In case the symmetry of your molecule has not been determined correctly
or in case you have a reason to use a different symmetry number we print 
out the resulting rotational entropy values for sn=1,12:

 non-linear molecules -----------------------------------
|  sn= 1 | S(rot)=       0.01321510 Eh      8.29 kcal/mol|
|  sn= 2 | S(rot)=       0.01256064 Eh      7.88 kcal/mol|
|  sn= 3 | S(rot)=       0.01217781 Eh      7.64 kcal/mol|
|  sn= 4 | S(rot)=       0.01190619 Eh      7.47 kcal/mol|
|  sn= 5 | S(rot)=       0.01169550 Eh      7.34 kcal/mol|
|  sn= 6 | S(rot)=       0.01152335 Eh      7.23 kcal/mol|
|  sn= 7 | S(rot)=       0.01137781 Eh      7.14 kcal/mol|
|  sn= 8 | S(rot)=       0.01125173 Eh      7.06 kcal/mol|
|  sn= 9 | S(rot)=       0.01114052 Eh      6.99 kcal/mol|
|  sn=10 | S(rot)=       0.01104104 Eh      6.93 kcal/mol|
|  sn=11 | S(rot)=       0.01095105 Eh      6.87 kcal/mol|
|  sn=12 | S(rot)=       0.01086890 Eh      6.82 kcal/mol|
 linear molecules ---------------------------------------
|  Dinfh | S(rot)=       0.00826483 Eh      5.19 kcal/mol|
|  Cinfv | S(rot)=       0.00891929 Eh      5.60 kcal/mol|
 --------------------------------------------------------


-------------------
GIBBS FREE ENERGY
-------------------

The Gibbs free energy is G = H - T*S

Total enthalpy                    ...   -413.98571525 Eh 
Total entropy correction          ...     -0.03730387 Eh    -23.41 kcal/mol
-----------------------------------------------------------------------
Final Gibbs free energy         ...   -414.02301912 Eh

For completeness - the Gibbs free energy minus the electronic energy
G-E(el)                           ...      0.05825248 Eh     36.55 kcal/mol


Maximum memory used throughout the entire PROP-calculation: 36.5 MB

--------------------------------
SUGGESTED CITATIONS FOR THIS RUN
--------------------------------

Below you find a list of papers that are relevant to this ORCA run
We neither can nor want to force you to cite these papers, but we appreciate if you do
You receive ORCA, which is the product of decades of hard work by many enthusiastic individuals, for free
The only thing we kindly ask in return is that you cite our papers,
We deeply appreciate it, if you show your appreciation for ORCA by not just citing the generic ORCA reference.

Please note that relegating all ORCA citations to the supporting information does *not* help us.
SI sections are not indexed - citations you put there will not count into any citation statistics
But we need these citations in order to attract the funding resources that allow us to do what we are doing

Therefore, if you are a happy ORCA user, please consider citing a few of the papers listed below in the main body of your paper

In addition to the list printed below, the program has created the file /dev/shm/3472798/uracil_s0_freq.inp-3472798/uracil_s0_freq.bibtex that contains the list in bibtex format
You can import this file easily into all common literature databanks and citation aid programs


List of essential papers. We consider these as the minimum necessary citations

  1. Neese,F.
     Software update: the ORCA program system, version 5.0
     WIRES Comput. Molec. Sci., 2022 12(1)e1606
     doi.org/10.1002/wcms.1606

List of papers to cite with high priority. The work reported in these papers was absolutely
necessary for this run to complete.
Our perspective: the developers of density functionals and basis sets usually get cited in chemistry papers
Good! But without the algorithms to do something with them, the functionals or basis sets would not do anything.
Hence, in our opinion, the algorithm design and method developments papers are equally worthy of getting cited

  1. Neese,F.
     An improvement of the resolution of the identity approximation for the formation of the Coulomb matrix
     J. Comp. Chem., 2003 24(14)1740-1747
     doi.org/10.1002/jcc.10318
  2. Neese,F.; Wennmohs,F.; Hansen,A.; Becker,U.
     Efficient, approximate and parallel Hartree-Fock and hybrid DFT calculations. A 'chain-of-spheres' algorithm for the Hartree-Fock exchange
     Chem. Phys., 2009 356(1-3)98-109
     doi.org/10.1016/j.chemphys.2008.10.036
  3. Bykov,D.; Petrenko,T.; Izsak,R.; Kossmann,S.; Becker,U.; Valeev,E.; Neese,F.
     Efficient implementation of the analytic second derivatives of Hartree-Fock and hybrid DFT energies: a detailed analysis of different approximations
     Molec. Phys., 2015 113 1961-1977
     doi.org/10.1080/00268976.2015.1025114
  4. Helmich-Paris,B.; de Souza,B.; Neese,F.; Izsák,R.
     An improved chain of spheres for exchange algorithm
     J. Chem. Phys., 2021 155 104109
     doi.org/doi: 10.1063/5.0058766.
  5. Neese,F.
     The SHARK Integral Generation and Digestion System
     J. Comp. Chem., 2022  1-16
     doi.org/10.1002/jcc.26942
  6. Caldeweyher,E.; Bannwarth,C.; Grimme,S.
     Extension of the D3 dispersion coefficient model
     J. Chem. Phys., 2017 147 034112
     doi.org/10.1063/1.4993215
  7. Caldeweyher,E.; Ehlert,S.; Hansen,A.; Neugebauer,H.; Spicher,S.; Bannwarth,C.; Grimme,S.
     A generally applicable atomic-charge dependent London dispersion correction
     J. Chem. Phys., 2019 150 154122
     doi.org/10.1063/1.5090222
  8. Caldeweyher,E.; Mewes,J.; Ehlert,S.; Grimme,S.
     Extension and evaluation of the D4 London-dispersion model for periodic systems
     Phys. Chem. Chem. Phys., 2020 22(16)8499-8512
     doi.org/10.1039/D0CP00502A
  9. Wittmann,L.; Gordiy,I.; Friede,M.; Helmich-Paris,B.; Grimme,S.; Hansen,A.; Bursch,M.
     Extension of the D3 and D4 London Dispersion Corrections to the full Actinides Series
     Phys. Chem. Chem. Phys., 2024 26(32)21379-21394
     doi.org/https://doi.org/10.1039/D4CP01514B 

List of suggested additional citations. These are papers that are important in the 'surrounding' of 
of this run, or papers that preceded the highly important papers. If you like your results we are grateful for a citation.

  1. Izsak,R.; Neese,F.
     An overlap fitted chain of spheres exchange method
     J. Chem. Phys., 2011 135 144105
     doi.org/10.1063/1.3646921
  2. Izsak,R.; Hansen,A.; Neese,F.
     The resolution of identity and chain of spheres approximations for the LPNO-CCSD singles Fock term
     Molec. Phys., 2012 110 2413-2417
     doi.org/10.1080/00268976.2012.687466
  3. Neese,F.
     The ORCA program system
     WIRES Comput. Molec. Sci., 2012 2(1)73-78
     doi.org/10.1002/wcms.81
  4. Izsak,R.; Neese,F.; Klopper,W.
     Robust fitting techniques in the chain of spheres approximation to the Fock exchange: The role of the complementary space
     J. Chem. Phys., 2013 139 
     doi.org/10.1063/1.4819264
  5. Neese,F.
     Software update: the ORCA program system, version 4.0
     WIRES Comput. Molec. Sci., 2018 8(1)1-6
     doi.org/10.1002/wcms.1327
  6. Neese,F.; Wennmohs,F.; Becker,U.; Riplinger,C.
     The ORCA quantum chemistry program package
     J. Chem. Phys., 2020 152 Art. No. L224108
     doi.org/10.1063/5.0004608

List of optional additional citations

  1. Neese,F.
     Approximate second-order SCF convergence for spin unrestricted wavefunctions
     Chem. Phys. Lett., 2000 325(1-3)93-98
     doi.org/10.1016/s0009-2614(00)00662-x

Timings for individual modules:

Sum of individual times          ...       47.178 sec (=   0.786 min)
Startup calculation              ...        2.404 sec (=   0.040 min)   5.1 %
SCF iterations                   ...        4.832 sec (=   0.081 min)  10.2 %
Property integrals               ...       11.049 sec (=   0.184 min)  23.4 %
SCF Response                     ...        6.864 sec (=   0.114 min)  14.5 %
Property calculations            ...       22.030 sec (=   0.367 min)  46.7 %
                             ****ORCA TERMINATED NORMALLY****
TOTAL RUN TIME: 0 days 0 hours 0 minutes 47 seconds 669 msec
