
                                 *****************
                                 * O   R   C   A *
                                 *****************

                                            #,                                       
                                            ###                                      
                                            ####                                     
                                            #####                                    
                                            ######                                   
                                           ########,                                 
                                     ,,################,,,,,                         
                               ,,#################################,,                 
                          ,,##########################################,,             
                       ,#########################################, ''#####,          
                    ,#############################################,,   '####,        
                  ,##################################################,,,,####,       
                ,###########''''           ''''###############################       
              ,#####''   ,,,,##########,,,,          '''####'''          '####       
            ,##' ,,,,###########################,,,                        '##       
           ' ,,###''''                  '''############,,,                           
         ,,##''                                '''############,,,,        ,,,,,,###''
      ,#''                                            '''#######################'''  
     '                                                          ''''####''''         
             ,#######,   #######,   ,#######,      ##                                
            ,#'     '#,  ##    ##  ,#'     '#,    #''#        ,####,   ,####,        
            ##       ##  ##   ,#'  ##            #'  '#       #'       #'  '#        
            ##       ##  #######   ##           ,######,      #####,   #    #        
            '#,     ,#'  ##    ##  '#,     ,#' ,#      #,     #,   #   #,  ,#        
             '#######'   ##     ##  '#######'  #'      '#     '####' # '####'        



                #########################################################
                #                        -***-                          #
                #          Department of theory and spectroscopy        #
                #                                                       #
                #                      Frank Neese                      #
                #                                                       #
                #     Directorship, Architecture, Infrastructure        #
                #                    SHARK, DRIVERS                     #
                #        Core code/Algorithms in most modules           #
                #                                                       #
                #        Max Planck Institute fuer Kohlenforschung      #
                #                Kaiser Wilhelm Platz 1                 #
                #                 D-45470 Muelheim/Ruhr                 #
                #                      Germany                          #
                #                                                       #
                #                  All rights reserved                  #
                #                        -***-                          #
                #########################################################


                         Program Version 6.0.1  -  RELEASE   -


 With contributions from (in alphabetic order):
[Max-Planck-Institut fuer Kohlenforschung]                               
  Daniel Aravena         : Magnetic Suceptibility                        
  Michael Atanasov       : Ab Initio Ligand Field Theory (pilot matlab implementation)
  Alexander A. Auer      : GIAO ZORA, VPT2 properties, NMR spectrum      
  Ute Becker             : All parallelization in ORCA, NUMFREQ, NUMCALC 
  Giovanni Bistoni       : ED, misc. LED, open-shell LED, HFLD           
  Martin Brehm           : Molecular dynamics                            
  Dmytro Bykov           : pre 5.0 version of the SCF Hessian            
  Marcos Casanova-Páez   : Triplet and SCS-CIS(D). UHF-(DLPNO)-IP/EA/STEOM-CCSD. UHF-CVS-IP/STEOM-CCSD   
  Vijay G. Chilkuri      : MRCI spin determinant printing, contributions to CSF-ICE 
  Pauline Colinet        : FMM embedding                                 
  Dipayan Datta          : RHF DLPNO-CCSD density                        
  Achintya Kumar Dutta   : EOM-CC, STEOM-CC                              
  Nicolas Foglia         : Exact transition moments, OPA infrastructure, MCD improvements    
  Dmitry Ganyushin       : Spin-Orbit,Spin-Spin,Magnetic field MRCI      
  Miquel Garcia-Rates    : C-PCM and meta-GGA Hessian, CCSD/C-PCM, Gaussian charge scheme 
  Tiago L. C. Gouveia    : GS-ROHF, GS-ROCIS                             
  Yang Guo               : DLPNO-NEVPT2, F12-NEVPT2, CIM, IAO-localization        
  Andreas Hansen         : Spin unrestricted coupled pair/coupled cluster methods 
  Ingolf Harden          : AUTO-CI MPn and infrastructure                
  Benjamin Helmich-Paris : MC-RPA, TRAH-(SCF,CASSCF), AVAS, COSX integrals, SCF dyn. polar. 
  Lee Huntington         : MR-EOM, pCC                                   
  Robert Izsak           : Overlap fitted RIJCOSX, COSX-SCS-MP3, EOM     
  Riya Kayal             : Wick's Theorem for AUTO-CI, AUTO-CI UHF-CCSDT 
  Emily Kempfer          : AUTO-CI, RHF CISDT and CCSDT                  
  Christian Kollmar      : KDIIS, OOCD, Brueckner-CCSD(T), CCSD density, CASPT2, CASPT2-K, improved NEVPT2 
  Axel Koslowski         : Symmetry handling                             
  Simone Kossmann        : meta-GGA functionals, TD-DFT gradient, OOMP2, (MP2 Hessian; deprecated post 5.0) 
  Lucas Lang             : DCDCAS                                        
  Marvin Lechner         : AUTO-CI (C++ implementation), FIC-MRCC        
  Spencer Leger          : CASSCF response                               
  Dagmar Lenk            : GEPOL surface, SMD, ORCA-2-JSON               
  Dimitrios Liakos       : Extrapolation schemes; Compound Job, initial MDCI parallelization 
  Dimitrios Manganas     : Further ROCIS development; embedding schemes. LFT, Crystal Embedding 
  Dimitrios Pantazis     : SARC Basis sets                               
  Anastasios Papadopoulos: AUTO-CI, single reference methods and gradients 
  Taras Petrenko         : pre 6.0 DFT Hessian and TD-DFT gradient, (ASA, deprecated), ECA, 1-Electron XAS/XES, NRVS 
  Peter Pinski           : DLPNO-MP2, DLPNO-MP2 Gradient                 
  Christoph Reimann      : Effective Core Potentials                     
  Marius Retegan         : Local ZFS, SOC                                
  Christoph Riplinger    : Optimizer, TS searches, QM/MM, DLPNO-CCSD(T), (RO)-DLPNO pert. Triples 
  Michael Roemelt        : Original ROCIS implementation                 
  Masaaki Saitow         : Open-shell DLPNO-CCSD energy and density      
  Barbara Sandhoefer     : DKH picture change effects                    
  Kantharuban Sivalingam : CASSCF convergence/infrastructure, NEVPT2 and variants, FIC-MRCI 
  Bernardo de Souza      : ESD, SOC TD-DFT                               
  Georgi L. Stoychev     : AutoAux, RI-MP2 NMR, DLPNO-MP2 response, X2C  
  Van Anh Tran           : RI-MP2 g-tensors                              
  Willem Van den Heuvel  : Paramagnetic NMR                              
  Zikuan Wang            : NOTCH, Electric field optimization            
  Frank Wennmohs         : Technical directorship and infrastructure     
  Hang Xu                : AUTO-CI-Response properties                   
                                                                         
[FACCTs GmbH]                                                            
  Markus Bursch, Miquel Garcia-Rates, Christoph Riplinger, Bernardo de Souza, Georgi L. Stoychev 
                                                                 
  APM, Basis sets (HGBS, AHGBS, def-TZVP (Ac-Lr), def2-XVPD (La-Lu)), CI-OPT, improved COSX, DLPNO-Multilevel,           
  DOCKER, DRACO, updates on ESD, GOAT, IRC, LR-CPCM, MBIS, meta-GGA TD-DFT gradient, ML-optimized integration grids, 
  MM, NACMEs, nearIR, NEB, NEB-TS, NL-DFT gradient (VV10), 2- and 3-layer-ONIOM, interface openCOSMO-RS, QMMM,   
  Crystal-QMMM, SF, symmetry and pop. for TD-DFT, r2SCAN hybrids, SOLVATOR                                   
                                                                         
[Other institutions]                                                     
  V. Asgeirsson          : NEB                                           
  Christoph Bannwarth    : sTDA-DFT, sTD-DFT, PBEh-3c, B97-3c, D3        
  Sebastian Ehlert       : rSCAN, r2SCAN, r2SCAN-3c, D4, dhf basis sets  
  Marvin Friede          : D4 for Fr, Ra, Ac-Lr                          
  Lars Goerigk           : TD-DFT with DH, B97 family of functionals     
  Stefan Grimme          : VdW corrections, initial TS optimization, DFT functionals, gCP, sTDA/sTD-DF 
  Waldemar Hujo          : DFT-NL                                        
  H. Jonsson             : NEB                                           
  Holger Kruse           : gCP                                           
  Marcel Mueller         : wB97X-3c, vDZP basis set                      
  Hagen Neugebauer       : wr2SCAN                                       
  Tobias Risthaus        : range-separated hybrid DFT                    
  Lukas Wittmann         : regularized MP2, r2SCAN double-hybrids, wr2SCAN        
                                                                         
We gratefully acknowledge several colleagues who have allowed us to      
interface, adapt or use parts of their codes:                            
  Ed Valeev, F. Pavosevic, A. Kumar             : LibInt (2-el integral package), F12 methods 
  Garnet Chan, S. Sharma, J. Yang, R. Olivares  : DMRG                   
  Ulf Ekstrom                                   : XCFun DFT Library      
  Mihaly Kallay                                 : mrcc  (arbitrary order and MRCC methods)
  Frank Weinhold                                : gennbo (NPA and NBO analysis)           
  Simon Mueller                                 : openCOSMO-RS                            
  Christopher J. Cramer and Donald G. Truhlar   : smd solvation model                     
  S Lehtola, MJT Oliveira, MAL Marques          : LibXC Library                           
  Liviu Ungur et al                             : ANISO software                          


 Your calculation uses the libint2 library for the computation of 2-el integrals
 For citations please refer to: http://libint.valeyev.net

 Your ORCA version has been built with support for libXC version: 6.2.2
 For citations please refer to: https://libxc.gitlab.io

 This ORCA versions uses:
   CBLAS   interface :  Fast vector & matrix operations
   LAPACKE interface :  Fast linear algebra routines
   SCALAPACK package :  Parallel linear algebra routines
   Shared memory     :  Shared parallel matrices
   BLAS/LAPACK       :  OpenBLAS 0.3.27  USE64BITINT DYNAMIC_ARCH NO_AFFINITY SkylakeX SINGLE_THREADED
        Core in use  :  SkylakeX
   Copyright (c) 2011-2014, The OpenBLAS Project


NOTE: MaxCore=2000 MB was set to SCF,MP2,MDCI,CIPSI,MRCI and CIS
      => If you want to overwrite this, your respective input block should be placed after the MaxCore statement


***************************************
The coordinates will be read from file: uracil_s0.xyz
***************************************


Your calculation utilizes the atom-pairwise dispersion correction
based on EEQ partial charges (D4)


================================================================================

----- Orbital basis set information -----
Your calculation utilizes the basis: def2-SVP
   F. Weigend and R. Ahlrichs, Phys. Chem. Chem. Phys. 7, 3297 (2005).

----- AuxJ basis set information -----
Your calculation utilizes the auxiliary basis: def2/J
   F. Weigend, Phys. Chem. Chem. Phys. 8, 1057 (2006).

================================================================================
                                        WARNINGS
                       Please study these warnings very carefully!
================================================================================

INFO   : Checking CIS options ...

WARNING: CIS/ROCIS methods need fully converged wavefunctions
  ===> : Setting SCFConvForced true
         You can overwrite this default with %scf ConvForced false 


================================================================================
                                       INPUT FILE
================================================================================
NAME = /dev/shm/3470117/uracil_s0_vee.inp-3470117/uracil_s0_vee.inp
|  1> %pal nprocs 16 end
|  2> %maxcore 2000
|  3> ! pbe0 d4 def2-SVP RIJCOSX Def2/J defgrid3 TightSCF
|  4> 
|  5> %output
|  6>     print[p_mos] 1
|  7>     print[p_basis] 2
|  8> end
|  9> 
| 10> %tddft 
| 11>     TDA true # TDA approx
| 12>     NRoots 8 # number of electronic states
| 13>     IRoot 1 # state of interest for calculation of properties 
| 14>     FollowIRoot true # relevant for excited state geometries
| 15>     DoNTO true # for Natural Transition Orbitals
| 16> end
| 17> 
| 18> * xyzfile 0 1 uracil_s0.xyz 
| 19> 
| 20> 
| 21>                          ****END OF INPUT****
================================================================================

                       ****************************
                       * Single Point Calculation *
                       ****************************

---------------------------------
CARTESIAN COORDINATES (ANGSTROEM)
---------------------------------
  C      0.714123    1.012224    0.553675
  N      1.488072    0.073180   -0.146480
  C      1.150596   -1.207575   -0.524939
  N     -0.134035   -1.563586   -0.137278
  C     -0.976315   -0.732774    0.546980
  C     -0.613397    0.517887    0.902398
  O      1.880974   -1.954516   -1.129227
  H     -1.282636    1.180838    1.447013
  O      1.159404    2.106817    0.811265
  H      2.421340    0.374717   -0.410798
  H     -0.415929   -2.499834   -0.399300
  H     -1.957967   -1.148134    0.785012

----------------------------
CARTESIAN COORDINATES (A.U.)
----------------------------
  NO LB      ZA    FRAG     MASS         X           Y           Z
   0 C     6.0000    0    12.011    1.349498    1.912827    1.046294
   1 N     7.0000    0    14.007    2.812049    0.138289   -0.276807
   2 C     6.0000    0    12.011    2.174312   -2.281986   -0.991990
   3 N     7.0000    0    14.007   -0.253289   -2.954750   -0.259417
   4 C     6.0000    0    12.011   -1.844968   -1.384742    1.033643
   5 C     6.0000    0    12.011   -1.159153    0.978665    1.705286
   6 O     8.0000    0    15.999    3.554527   -3.693500   -2.133930
   7 H     1.0000    0     1.008   -2.423831    2.231460    2.734459
   8 O     8.0000    0    15.999    2.190956    3.981307    1.533069
   9 H     1.0000    0     1.008    4.575669    0.708113   -0.776296
  10 H     1.0000    0     1.008   -0.785992   -4.724002   -0.754567
  11 H     1.0000    0     1.008   -3.700022   -2.169659    1.483457

--------------------------------
INTERNAL COORDINATES (ANGSTROEM)
--------------------------------
 C      0   0   0     0.000000000000     0.00000000     0.00000000
 N      1   0   0     1.403929725867     0.00000000     0.00000000
 C      2   1   0     1.377480638317   128.59865324     0.00000000
 N      3   2   1     1.388272849493   112.85617750     0.00000000
 C      4   3   2     1.366709022704   123.65493506     0.00000000
 C      5   4   3     1.349883444937   121.96108359     0.00000000
 O      3   2   1     1.206871074571   124.38481712   180.00613626
 H      6   5   4     1.088113020049   122.06694377   179.98883527
 O      1   2   3     1.209446514432   120.57096672   180.04511452
 H      2   1   3     1.015764470077   115.95811480   179.99478624
 H      4   3   2     1.012265159608   114.99838727   180.00376101
 H      5   4   3     1.092164911805   115.58522491   179.98572930

---------------------------
INTERNAL COORDINATES (A.U.)
---------------------------
 C      0   0   0     0.000000000000     0.00000000     0.00000000
 N      1   0   0     2.653042693160     0.00000000     0.00000000
 C      2   1   0     2.603061161198   128.59865324     0.00000000
 N      3   2   1     2.623455484700   112.85617750     0.00000000
 C      4   3   2     2.582705757669   123.65493506     0.00000000
 C      5   4   3     2.550910023645   121.96108359     0.00000000
 O      3   2   1     2.280655809890   124.38481712   180.00613626
 H      6   5   4     2.056235610647   122.06694377   179.98883527
 O      1   2   3     2.285522685902   120.57096672   180.04511452
 H      2   1   3     1.919516665014   115.95811480   179.99478624
 H      4   3   2     1.912903926570   114.99838727   180.00376101
 H      5   4   3     2.063892576390   115.58522491   179.98572930

---------------------
BASIS SET INFORMATION
---------------------
There are 4 groups of distinct atoms

 Group   1 Type C   : 7s4p1d contracted to 3s2p1d pattern {511/31/1}
 Group   2 Type N   : 7s4p1d contracted to 3s2p1d pattern {511/31/1}
 Group   3 Type O   : 7s4p1d contracted to 3s2p1d pattern {511/31/1}
 Group   4 Type H   : 4s1p contracted to 2s1p pattern {31/1}

Atom   0C    basis set group =>   1
Atom   1N    basis set group =>   2
Atom   2C    basis set group =>   1
Atom   3N    basis set group =>   2
Atom   4C    basis set group =>   1
Atom   5C    basis set group =>   1
Atom   6O    basis set group =>   3
Atom   7H    basis set group =>   4
Atom   8O    basis set group =>   3
Atom   9H    basis set group =>   4
Atom  10H    basis set group =>   4
Atom  11H    basis set group =>   4

-------------------------
BASIS SET IN INPUT FORMAT
-------------------------

 # Basis set for element : H 
 NewGTO H 
 S 3 
   1      13.0107010000      0.0334854848
   2       1.9622572000      0.2347218709
   3       0.4445379600      0.8137702853
 S 1 
   1       0.1219496200      1.0000000000
 P 1 
   1       0.8000000000      1.0000000000
  end;

 # Basis set for element : C 
 NewGTO C 
 S 5 
   1    1238.4016938000      0.0055173650
   2     186.2900499200      0.0410888285
   3      42.2511763460      0.1822538213
   4      11.6765579320      0.4682845944
   5       3.5930506482      0.4457581734
 S 1 
   1       0.4024514736      1.0000000000
 S 1 
   1       0.1309018267      1.0000000000
 P 3 
   1       9.4680970621      0.0568883320
   2       2.0103545142      0.3129405934
   3       0.5477100471      0.7606501651
 P 1 
   1       0.1526861379      1.0000000000
 D 1 
   1       0.8000000000      1.0000000000
  end;

 # Basis set for element : N 
 NewGTO N 
 S 5 
   1    1712.8415853000     -0.0054477995
   2     257.6481267700     -0.0406271746
   3      58.4582458530     -0.1811196225
   4      16.1983679050     -0.4684397556
   5       5.0052600809     -0.4461684629
 S 1 
   1       0.5873185657      1.0000000000
 S 1 
   1       0.1876459225      1.0000000000
 P 3 
   1      13.5714702330     -0.0588481170
   2       2.9257372874     -0.3202462476
   3       0.7992775075     -0.7532822652
 P 1 
   1       0.2195434803      1.0000000000
 D 1 
   1       1.0000000000      1.0000000000
  end;

 # Basis set for element : O 
 NewGTO O 
 S 5 
   1    2266.1767785000     -0.0053893504
   2     340.8701019100     -0.0402347214
   3      77.3631351670     -0.1800818421
   4      21.4796449400     -0.4682885766
   5       6.6589433124     -0.4469261716
 S 1 
   1       0.8097597567      1.0000000000
 S 1 
   1       0.2553077223      1.0000000000
 P 3 
   1      17.7215043170      0.0626302488
   2       3.8635505440      0.3333113849
   3       1.0480920883      0.7414863830
 P 1 
   1       0.2764154441      1.0000000000
 D 1 
   1       1.2000000000      1.0000000000
  end;

---------------------------------
AUXILIARY/J BASIS SET INFORMATION
---------------------------------
There are 4 groups of distinct atoms

 Group   1 Type C   : 12s5p4d2f1g contracted to 6s4p3d1f1g pattern {711111/2111/211/2/1}
 Group   2 Type N   : 12s5p4d2f1g contracted to 6s4p3d1f1g pattern {711111/2111/211/2/1}
 Group   3 Type O   : 12s5p4d2f1g contracted to 6s4p3d1f1g pattern {711111/2111/211/2/1}
 Group   4 Type H   : 5s2p1d contracted to 3s1p1d pattern {311/2/1}

Atom   0C    basis set group =>   1
Atom   1N    basis set group =>   2
Atom   2C    basis set group =>   1
Atom   3N    basis set group =>   2
Atom   4C    basis set group =>   1
Atom   5C    basis set group =>   1
Atom   6O    basis set group =>   3
Atom   7H    basis set group =>   4
Atom   8O    basis set group =>   3
Atom   9H    basis set group =>   4
Atom  10H    basis set group =>   4
Atom  11H    basis set group =>   4

-------------------------------------
AUXILIARY/J BASIS SET IN INPUT FORMAT
-------------------------------------

 # Auxiliary/J basis set for element : H 
 NewAuxJGTO H 
 S 3 
   1      15.6752927000      0.1007184237
   2       3.6063578000      0.3404257499
   3       1.2080016000      0.6491996172
 S 1 
   1       0.4726794000      1.0000000000
 S 1 
   1       0.2018100000      1.0000000000
 P 2 
   1       2.0281365000      0.5596620919
   2       0.5358730000      0.5596620919
 D 1 
   1       2.2165124000      1.0000000000
  end;

 # Auxiliary/J basis set for element : C 
 NewAuxJGTO C 
 S 7 
   1    1861.0916331000      0.0134602335
   2     642.9939764000      0.0299160374
   3     235.1105725000      0.1008649584
   4      90.7028894000      0.2370970548
   5      36.7794552000      0.3924037254
   6      15.6046273000      0.3195862154
   7       6.8907294000      0.0530104441
 S 1 
   1       3.1478850000     -1.0000000000
 S 1 
   1       1.4777287000      1.0000000000
 S 1 
   1       0.7076466000      1.0000000000
 S 1 
   1       0.3430122000      1.0000000000
 S 1 
   1       0.1669453000      1.0000000000
 P 2 
   1      13.5472892000     -0.6769313712
   2       5.4669419000     -0.3779500978
 P 1 
   1       2.1751721000      1.0000000000
 P 1 
   1       0.8582194000      1.0000000000
 P 1 
   1       0.3376720000      1.0000000000
 D 2 
   1       5.9287253000     -0.3533329857
   2       1.9809209000     -0.7456525731
 D 1 
   1       0.8055417000     -1.0000000000
 D 1 
   1       0.3531244000     -1.0000000000
 F 2 
   1       1.6755626000      0.6311076882
   2       0.5997536000      0.4968166032
 G 1 
   1       1.0024600000     -1.0000000000
  end;

 # Auxiliary/J basis set for element : N 
 NewAuxJGTO N 
 S 7 
   1    2542.9401785000      0.0128431329
   2    1029.5472946000      0.0206655120
   3     424.9053546000      0.0652200677
   4     178.4573708000      0.1617388940
   5      76.1362742000      0.3094256941
   6      32.9338653000      0.3918849307
   7      14.4155436000      0.1822470660
 S 1 
   1       6.3718891000     -1.0000000000
 S 1 
   1       2.8381742000      1.0000000000
 S 1 
   1       1.2711793000      1.0000000000
 S 1 
   1       0.5712407000      1.0000000000
 S 1 
   1       0.2569887000      1.0000000000
 P 2 
   1      17.8975990000     -1.0974070137
   2       6.5346319000      0.1380055963
 P 1 
   1       2.3523645000      1.0000000000
 P 1 
   1       0.8397377000      1.0000000000
 P 1 
   1       0.2989335000      1.0000000000
 D 2 
   1       7.6909870000      0.1770780943
   2       2.3044972000      0.8918319220
 D 1 
   1       0.8403987000      1.0000000000
 D 1 
   1       0.3303797000      1.0000000000
 F 2 
   1       2.3331076000      0.6223178877
   2       0.8446137000      0.5036714203
 G 1 
   1       1.4037700000     -1.0000000000
  end;

 # Auxiliary/J basis set for element : O 
 NewAuxJGTO O 
 S 7 
   1    2876.8216605000      0.0168151159
   2    1004.7443032000      0.0340137548
   3     369.7579954000      0.1194951309
   4     142.9442404000      0.2664627624
   5      57.8366425000      0.4202764046
   6      24.3864983000      0.2765077335
   7      10.6622662000      0.0057008815
 S 1 
   1       4.8070437000     -1.0000000000
 S 1 
   1       2.2210770000      1.0000000000
 S 1 
   1       1.0447795000      1.0000000000
 S 1 
   1       0.4968425000      1.0000000000
 S 1 
   1       0.2371384000      1.0000000000
 P 2 
   1      64.2613382000     -0.2731534179
   2      16.3006076000     -0.8168011598
 P 1 
   1       4.3550542000      1.0000000000
 P 1 
   1       1.2019554000      1.0000000000
 P 1 
   1       0.3354196000      1.0000000000
 D 2 
   1       9.2146611000     -0.4661230638
   2       2.8435251000     -0.6600908911
 D 1 
   1       0.9955759000     -1.0000000000
 D 1 
   1       0.3649441000     -1.0000000000
 F 2 
   1       2.6420115000      0.5931563945
   2       0.7345613000      0.5931563945
 G 1 
   1       1.3931000000     -1.0000000000
  end;


Checking for AutoStart:
The File: /dev/shm/3470117/uracil_s0_vee.inp-3470117/uracil_s0_vee.gbw exists
Trying to determine its content:
     ... Fine, the file contains calculation information
     ... Fine, the calculation information was read
     ... Fine, the file contains a basis set
     ... Fine, the basis set was read
     ... Fine, the file contains a geometry
     ... Fine, the geometry was read
     ... Fine, the file contains a set of orbitals
     ... Fine, the orbitals can be read
     => possible old guess file was deleted
     => GBW file was renamed to GES file
     => GES file is set as startup file
     => Guess is set to MORead
     ... now leaving AutoStart



           ************************************************************
           *        Program running with 16 parallel MPI-processes    *
           *              working on a common directory               *
           ************************************************************
------------------------------------------------------------------------------
                             ORCA STARTUP CALCULATIONS
                           -- RI-GTO INTEGRALS CHOSEN --
------------------------------------------------------------------------------
------------------------------------------------------------------------------
                   ___                                                        
                  /   \      - P O W E R E D   B Y -                         
                 /     \                                                     
                 |  |  |   _    _      __       _____    __    __             
                 |  |  |  | |  | |    /  \     |  _  \  |  |  /  |          
                  \  \/   | |  | |   /    \    | | | |  |  | /  /          
                 / \  \   | |__| |  /  /\  \   | |_| |  |  |/  /          
                |  |  |   |  __  | /  /__\  \  |    /   |      \           
                |  |  |   | |  | | |   __   |  |    \   |  |\   \          
                \     /   | |  | | |  |  |  |  | |\  \  |  | \   \       
                 \___/    |_|  |_| |__|  |__|  |_| \__\ |__|  \__/        
                                                                              
                      - O R C A' S   B I G   F R I E N D -                    
                                      &                                       
                       - I N T E G R A L  F E E D E R -                       
                                                                              
 v1 FN, 2020, v2 2021, v3 2022-2024                                           
------------------------------------------------------------------------------


----------------------
SHARK INTEGRAL PACKAGE
----------------------

Number of atoms                             ...     12
Number of basis functions                   ...    132
Number of shells                            ...     60
Maximum angular momentum                    ...      2
Integral batch strategy                     ... SHARK/LIBINT Hybrid
RI-J (if used) integral strategy            ... SPLIT-RIJ (Revised 2003 algorithm where possible)
Printlevel                                  ...      1
Contraction scheme used                     ... SEGMENTED contraction
Prescreening option                         ... SCHWARTZ
   Thresh                                   ... 2.500e-11
   Tcut                                     ... 2.500e-12
   Tpresel                                  ... 2.500e-12 
Coulomb Range Separation                    ... NOT USED
Exchange Range Separation                   ... NOT USED
Multipole approximations                    ... NOT USED
Finite Nucleus Model                        ... NOT USED
CABS basis                                  ... NOT available
Auxiliary Coulomb fitting basis             ... AVAILABLE
   # of basis functions in Aux-J            ...    436
   # of shells in Aux-J                     ...    140
   Maximum angular momentum in Aux-J        ...      4
Auxiliary J/K fitting basis                 ... NOT available
Auxiliary Correlation fitting basis         ... NOT available
Auxiliary 'external' fitting basis          ... NOT available

Checking pre-screening integrals            ... done (  0.0 sec) Dimension = 60
Check shell pair data                       ... done (  0.0 sec)
Shell pair information
Shell pair cut-off parameter TPreSel        ...   2.5e-12
Total number of shell pairs                 ...      1830
Shell pairs after pre-screening             ...      1737
Total number of primitive shell pairs       ...      6902
Primitive shell pairs kept                  ...      4908
          la=0 lb=0:    493 shell pairs
          la=1 lb=0:    613 shell pairs
          la=1 lb=1:    204 shell pairs
          la=2 lb=0:    238 shell pairs
          la=2 lb=1:    154 shell pairs
          la=2 lb=2:     35 shell pairs

Calculating one electron integrals          ... done (  0.0 sec)
Calculating RI/J V-Matrix + Cholesky decomp.... done (  0.0 sec)
Calculating Nuclear repulsion               ... done (  0.0 sec) ENN=    357.255993145297 Eh

Diagonalization of the overlap matrix:
Smallest eigenvalue                        ... 1.281e-03
Time for diagonalization                   ...    0.020 sec
Threshold for overlap eigenvalues          ... 1.000e-07
Number of eigenvalues below threshold      ... 0
Time for construction of square roots      ...    0.001 sec
Total time needed                          ...    0.021 sec

-------------------
DFT GRID GENERATION
-------------------

General Integration Accuracy     IntAcc      ... 4.959
Radial Grid Type                 RadialGrid  ... OptM3 with GC (2021)
Angular Grid (max. ang.)         AngularGrid ... 6 (Lebedev-590)
Angular grid pruning method      GridPruning ... 4 (adaptive)
Weight generation scheme         WeightScheme... mBecke (2022)
Basis function cutoff            BFCut       ... 1.0000e-11
Integration weight cutoff        WCut        ... 1.0000e-14
Partially contracted basis set               ... off
Rotationally invariant grid construction     ... off
Angular grids for H and He will be reduced by one unit

Total number of grid points                  ...   150041
Total number of batches                      ...     2351
Average number of points per batch           ...       63
Average number of grid points per atom       ...    12503

--------------------
COSX GRID GENERATION
--------------------

GRIDX 1
-------
General Integration Accuracy     IntAcc      ... 4.020
Radial Grid Type                 RadialGrid  ... OptM3 with GC (2021)
Angular Grid (max. ang.)         AngularGrid ... 2 (Lebedev-110)
Angular grid pruning method      GridPruning ... 4 (adaptive)
Weight generation scheme         WeightScheme... mBecke (2022)
Basis function cutoff            BFCut       ... 1.0000e-11
Integration weight cutoff        WCut        ... 1.0000e-14
Partially contracted basis set               ... on
Rotationally invariant grid construction     ... off
Angular grids for H and He will be reduced by one unit

Total number of grid points                  ...    17603
Total number of batches                      ...      145
Average number of points per batch           ...      121
Average number of grid points per atom       ...     1467
UseSFitting                                  ... on

GRIDX 2
-------
General Integration Accuracy     IntAcc      ... 4.338
Radial Grid Type                 RadialGrid  ... OptM3 with GC (2021)
Angular Grid (max. ang.)         AngularGrid ... 3 (Lebedev-194)
Angular grid pruning method      GridPruning ... 4 (adaptive)
Weight generation scheme         WeightScheme... mBecke (2022)
Basis function cutoff            BFCut       ... 1.0000e-11
Integration weight cutoff        WCut        ... 1.0000e-14
Partially contracted basis set               ... on
Rotationally invariant grid construction     ... off
Angular grids for H and He will be reduced by one unit

Total number of grid points                  ...    38998
Total number of batches                      ...      312
Average number of points per batch           ...      124
Average number of grid points per atom       ...     3250
UseSFitting                                  ... on

GRIDX 3
-------
General Integration Accuracy     IntAcc      ... 4.871
Radial Grid Type                 RadialGrid  ... OptM3 with GC (2021)
Angular Grid (max. ang.)         AngularGrid ... 4 (Lebedev-302)
Angular grid pruning method      GridPruning ... 4 (adaptive)
Weight generation scheme         WeightScheme... mBecke (2022)
Basis function cutoff            BFCut       ... 1.0000e-11
Integration weight cutoff        WCut        ... 1.0000e-14
Partially contracted basis set               ... on
Rotationally invariant grid construction     ... off
Angular grids for H and He will be reduced by one unit

Total number of grid points                  ...    72160
Total number of batches                      ...      569
Average number of points per batch           ...      126
Average number of grid points per atom       ...     6013
UseSFitting                                  ... on
Initializing property integral containers    ... done (  0.0 sec)

SHARK setup successfully completed in   1.9 seconds

Maximum memory used throughout the entire STARTUP-calculation: 31.1 MB


           ************************************************************
           *        Program running with 16 parallel MPI-processes    *
           *              working on a common directory               *
           ************************************************************
-------------------------------------------------------------------------------
                                 ORCA GUESS
                   Start orbitals & Density for SCF / CASSCF
-------------------------------------------------------------------------------

------------
SCF SETTINGS
------------
Hamiltonian:
 Density Functional     Method          .... DFT(GTOs)
 Exchange Functional    Exchange        .... PBE
   PBE kappa parameter   XKappa         ....  0.804000
   PBE mue parameter    XMuePBE         ....  0.219520
 Correlation Functional Correlation     .... PBE
   PBE beta parameter  CBetaPBE         ....  0.066725
 LDA part of GGA corr.  LDAOpt          .... PW91-LDA
 Gradients option       PostSCFGGA      .... off
 Hybrid DFT is turned on
   Fraction HF Exchange ScalHFX         ....  0.250000
   Scaling of DF-GGA-X  ScalDFX         ....  0.750000
   Scaling of DF-GGA-C  ScalDFC         ....  1.000000
   Scaling of DF-LDA-C  ScalLDAC        ....  1.000000
   Perturbative correction              ....  0.000000
   NL short-range parameter             ....  6.900000
 RI-approximation to the Coulomb term is turned on
   Number of AuxJ basis functions       .... 436
   RIJ-COSX (HFX calculated with COS-X)).... on


General Settings:
 Integral files         IntName         .... /dev/shm/3470117/uracil_s0_vee.inp-3470117/uracil_s0_vee
 Hartree-Fock type      HFTyp           .... RHF
 Total Charge           Charge          ....    0
 Multiplicity           Mult            ....    1
 Number of Electrons    NEL             ....   58
 Basis Dimension        Dim             ....  132
 Nuclear Repulsion      ENuc            ....    357.2559931453 Eh

Convergence Acceleration:
 AO-DIIS                CNVDIIS         .... on
   Start iteration      DIISMaxIt       ....    12
   Startup error        DIISStart       ....  0.200000
   # of expansion vecs  DIISMaxEq       ....     5
   Bias factor          DIISBfac        ....   1.050
   Max. coefficient     DIISMaxC        ....  10.000
 MO-DIIS                CNVKDIIS        .... off
 Trust-Rad. Augm. Hess. CNVTRAH         .... auto
   Auto Start mean grad. ratio tolernc. ....  1.125000
   Auto Start start iteration           ....     1
   Auto Start num. interpolation iter.  ....    10
   Max. Number of Micro iterations      ....    24
   Max. Number of Macro iterations      .... Maxiter - #DIIS iter
   Number of Davidson start vectors     ....     2
   Converg. threshold    (grad. norm)   ....   1.000e-05
   Grad. Scal. Fac. for Micro threshold ....   0.100
   Minimum threshold for Micro iter.    ....   1.000e-02
   NR start threshold (gradient norm)   ....   1.000e-04
   Initial trust radius                 ....   0.400
   Minimum AH scaling param. (alpha)    ....   1.000
   Maximum AH scaling param. (alpha)    .... 1000.000
   Quad. conv. algorithm                .... NR
   White noise on init. David. guess    .... on
   Maximum white noise                  ....   0.010
   Pseudo random numbers                .... off
   Inactive MOs                         .... canonical
   Orbital update algorithm             .... Taylor
   Preconditioner                       .... Diag
   Full preconditioner red. dimension   ....   250
 SOSCF                  CNVSOSCF        .... on
   Start iteration      SOSCFMaxIt      ....   150
   Startup grad/error   SOSCFStart      ....  0.003300
   Hessian update       SOSCFHessUp     .... L-BFGS
 Level Shifting         CNVShift        .... on
   Level shift para.    LevelShift      ....    0.2500
   Turn off err/grad.   ShiftErr        ....    0.0010
 Zerner damping         CNVZerner       .... off
 Static damping         CNVDamp         .... on
   Fraction old density DampFac         ....    0.7000
   Max. Damping (<1)    DampMax         ....    0.9800
   Min. Damping (>=0)   DampMin         ....    0.0000
   Turn off err/grad.   DampErr         ....    0.1000

SCF Procedure:
 Maximum # iterations   MaxIter         ....   125
 SCF integral mode      SCFMode         .... Direct
   Integral package                     .... SHARK and LIBINT hybrid scheme
 Reset frequency        DirectResetFreq ....    20
 Integral Threshold     Thresh          ....  2.500e-11 Eh
 Primitive CutOff       TCut            ....  2.500e-12 Eh

Convergence Tolerance:
 Convergence Check Mode ConvCheckMode   .... Total+1el-Energy
 Convergence forced     ConvForced      .... 1
 Energy Change          TolE            ....  1.000e-08 Eh
 1-El. energy change                    ....  1.000e-05 Eh
 Orbital Gradient       TolG            ....  1.000e-05
 Orbital Rotation angle TolX            ....  1.000e-05
 DIIS Error             TolErr          ....  5.000e-07

---------------------
INITIAL GUESS: MOREAD
---------------------
Guess MOs are being read from file: /dev/shm/3470117/uracil_s0_vee.inp-3470117/uracil_s0_vee.ges
Input geometry compatible with but different from current geometry
Input basis set matches current basis set (good)
Occupation numbers will be reassigned to an Aufbau configuration
MOs were renormalized
MOs were reorthogonalized (Cholesky)
                      ------------------
                      INITIAL GUESS DONE (   0.0 sec)
                      ------------------
             **** ENERGY FILE WAS UPDATED (/dev/shm/3470117/uracil_s0_vee.inp-3470117/uracil_s0_vee.en.tmp) ****
Finished Guess after   0.1 sec
Maximum memory used throughout the entire GUESS-calculation: 7.9 MB


           ************************************************************
           *        Program running with 16 parallel MPI-processes    *
           *              working on a common directory               *
           ************************************************************

-------------------------------------------------------------------------------------------
                                      ORCA LEAN-SCF
                              memory conserving SCF solver
-------------------------------------------------------------------------------------------

----------------------------------------D-I-I-S--------------------------------------------
Iteration    Energy (Eh)           Delta-E    RMSDP     MaxDP     DIISErr   Damp  Time(sec)
-------------------------------------------------------------------------------------------
               ***  Starting incremental Fock matrix formation  ***
    1    -414.0522486933928690     0.00e+00  1.04e-03  2.89e-02  5.55e-02  0.700   0.5
    2    -414.0577608873618942    -5.51e-03  8.77e-04  2.25e-02  3.18e-02  0.700   0.2
                               ***Turning on AO-DIIS***
    3    -414.0617014967226055    -3.94e-03  6.43e-04  1.30e-02  2.22e-02  0.700   0.2
    4    -414.0644877250002196    -2.79e-03  1.67e-03  3.72e-02  1.72e-02  0.000   0.2
    5    -414.0714910568481741    -7.00e-03  1.70e-04  4.57e-03  3.31e-03  0.000   0.2
                              *** Initializing SOSCF ***
---------------------------------------S-O-S-C-F--------------------------------------
Iteration    Energy (Eh)           Delta-E    RMSDP     MaxDP     MaxGrad    Time(sec)
--------------------------------------------------------------------------------------
    6    -414.0715181421807642    -2.71e-05  4.39e-05  8.45e-04  1.13e-03     0.2
               *** Restarting incremental Fock matrix formation ***
    7    -414.0715239317941609    -5.79e-06  3.47e-05  6.43e-04  2.02e-04     0.4
    8    -414.0715237543732314     1.77e-07  1.98e-05  3.82e-04  2.18e-04     0.3
    9    -414.0715246409409360    -8.87e-07  6.57e-06  1.22e-04  3.25e-05     0.4
   10    -414.0715246581656288    -1.72e-08  2.49e-06  7.19e-05  2.10e-05     0.3
   11    -414.0715246763424489    -1.82e-08  1.46e-06  3.52e-05  6.12e-06     0.3
   12    -414.0715246764647759    -1.22e-10  8.33e-07  2.11e-05  9.34e-06     0.3
                 **** Energy Check signals convergence ****

               *****************************************************
               *                     SUCCESS                       *
               *           SCF CONVERGED AFTER  12 CYCLES          *
               *****************************************************

Recomputing exchange energy using gridx3       ... done (    0.512 sec)
Old exchange energy                            :    -12.950231975 Eh
New exchange energy                            :    -12.950228295 Eh
Exchange energy change after final integration :      0.000003680 Eh
Total energy after final integration           :   -414.071520997 Eh
             **** ENERGY FILE WAS UPDATED (/dev/shm/3470117/uracil_s0_vee.inp-3470117/uracil_s0_vee.en.tmp) ****

----------------
TOTAL SCF ENERGY
----------------

Total Energy       :       -414.07152099684640 Eh          -11267.45891 eV

Components:
Nuclear Repulsion  :        357.25599314529694 Eh            9721.42980 eV
Electronic Energy  :       -771.32751782176183 Eh          -20988.88881 eV
One Electron Energy:      -1271.40072976512624 Eh          -34596.57271 eV
Two Electron Energy:        500.07321194336447 Eh           13607.68390 eV

Virial components:
Potential Energy   :       -824.69570511097936 Eh          -22441.11102 eV
Kinetic Energy     :        410.62418411413296 Eh           11173.65211 eV
Virial Ratio       :          2.00839535764351

DFT components:
N(Alpha)           :       29.000004774390 electrons
N(Beta)            :       29.000004774390 electrons
N(Total)           :       58.000009548779 electrons
E(X)               :      -38.823287186200 Eh       
E(C)               :       -1.980810284197 Eh       
E(XC)              :      -40.804097470398 Eh       

---------------
SCF CONVERGENCE
---------------

  Last Energy change         ...    1.2233e-10  Tolerance :   1.0000e-08
  Last MAX-Density change    ...    2.1138e-05  Tolerance :   1.0000e-07
  Last RMS-Density change    ...    8.3325e-07  Tolerance :   5.0000e-09
  Last DIIS Error            ...    1.1283e-03  Tolerance :   5.0000e-07
  Last Orbital Gradient      ...    9.3386e-06  Tolerance :   1.0000e-05
  Last Orbital Rotation      ...    1.2235e-05  Tolerance :   1.0000e-05


----------------
ORBITAL ENERGIES
----------------

  NO   OCC          E(Eh)            E(eV) 
   0   2.0000     -19.196282      -522.3574 
   1   2.0000     -19.188822      -522.1544 
   2   2.0000     -14.470145      -393.7527 
   3   2.0000     -14.449252      -393.1841 
   4   2.0000     -10.387864      -282.6681 
   5   2.0000     -10.353174      -281.7242 
   6   2.0000     -10.323185      -280.9081 
   7   2.0000     -10.255473      -279.0656 
   8   2.0000      -1.106486       -30.1090 
   9   2.0000      -1.069096       -29.0916 
  10   2.0000      -1.007357       -27.4116 
  11   2.0000      -0.950669       -25.8690 
  12   2.0000      -0.820822       -22.3357 
  13   2.0000      -0.714842       -19.4518 
  14   2.0000      -0.687187       -18.6993 
  15   2.0000      -0.619670       -16.8621 
  16   2.0000      -0.584492       -15.9048 
  17   2.0000      -0.540901       -14.7187 
  18   2.0000      -0.507138       -13.7999 
  19   2.0000      -0.489834       -13.3291 
  20   2.0000      -0.468397       -12.7457 
  21   2.0000      -0.441305       -12.0085 
  22   2.0000      -0.436464       -11.8768 
  23   2.0000      -0.429070       -11.6756 
  24   2.0000      -0.392258       -10.6739 
  25   2.0000      -0.315783        -8.5929 
  26   2.0000      -0.305137        -8.3032 
  27   2.0000      -0.283234        -7.7072 
  28   2.0000      -0.268858        -7.3160 
  29   0.0000      -0.042311        -1.1513 
  30   0.0000       0.014807         0.4029 
  31   0.0000       0.039319         1.0699 
  32   0.0000       0.090749         2.4694 
  33   0.0000       0.096059         2.6139 
  34   0.0000       0.127070         3.4578 
  35   0.0000       0.132754         3.6124 
  36   0.0000       0.186695         5.0802 
  37   0.0000       0.201847         5.4925 
  38   0.0000       0.236432         6.4336 
  39   0.0000       0.269880         7.3438 
*Only the first 10 virtual orbitals were printed.
------------------
MOLECULAR ORBITALS (RHF, ROHF)
------------------
                      0         1         2         3         4         5   
                 -19.19628 -19.18882 -14.47015 -14.44925 -10.38786 -10.35317
                   2.00000   2.00000   2.00000   2.00000   2.00000   2.00000
                  --------  --------  --------  --------  --------  --------
  0C   1s        -0.000104  0.000182  0.000008  0.000320 -0.001100  0.988341
  0C   2s         0.001607  0.003222 -0.000234 -0.001188 -0.003166  0.049441
  0C   3s         0.000178  0.002464 -0.004921  0.014087  0.014658 -0.013391
  0C   1pz       -0.000222 -0.000037  0.000095  0.000409  0.000099 -0.000402
  0C   1px        0.000200 -0.000557 -0.000126 -0.000630 -0.000020  0.001115
  0C   1py       -0.000344 -0.000663  0.000106  0.000367  0.000223  0.000155
  0C   2pz        0.000775  0.007470 -0.001220 -0.006329  0.000242 -0.001668
  0C   2px       -0.001026  0.005933  0.004262  0.002779 -0.012241  0.015655
  0C   2py        0.000868  0.024570  0.001337 -0.012803 -0.011917  0.011900
  0C   1dz2       0.000038  0.000730 -0.000026  0.000074 -0.000149 -0.001746
  0C   1dxz       0.000148 -0.000255  0.000027  0.000777 -0.000037 -0.000890
  0C   1dyz       0.000016 -0.000630  0.000061 -0.000794  0.000208  0.001520
  0C   1dx2y2    -0.000200  0.001110 -0.000108  0.000017 -0.000212 -0.000832
  0C   1dxy       0.000039 -0.000942  0.000017  0.001149  0.000056  0.001050
  1N   1s         0.000096 -0.000119 -0.000270 -0.988371 -0.000132 -0.000180
  1N   2s         0.001220 -0.001563  0.000629  0.046900  0.000137 -0.000125
  1N   3s        -0.008364  0.010002 -0.000673 -0.048160 -0.008226 -0.005946
  1N   1pz       -0.000020  0.000254  0.000095  0.000154 -0.000256  0.000189
  1N   1px        0.000304 -0.000407  0.000021 -0.000223 -0.000016 -0.000338
  1N   1py        0.000262  0.000211  0.000256  0.000153 -0.000648  0.000120
  1N   2pz       -0.001022  0.002779  0.000702 -0.002700  0.002284 -0.005297
  1N   2px        0.005331 -0.005919 -0.001190  0.009148  0.003138  0.003557
  1N   2py        0.002925  0.000805  0.000519  0.002686  0.008858 -0.009456
  1N   1dz2       0.000100 -0.000079  0.000145 -0.000891  0.000768  0.000416
  1N   1dxz       0.000012 -0.000160  0.000174 -0.000776  0.000011  0.000910
  1N   1dyz       0.000127 -0.000036 -0.000164  0.000278 -0.000814 -0.001080
  1N   1dx2y2    -0.000165  0.000236 -0.000009  0.000577  0.001008  0.000215
  1N   1dxy      -0.000270  0.000039  0.000023  0.000695 -0.000645  0.000900
  2C   1s        -0.000235  0.000090 -0.000294  0.000328  0.988248  0.001439
  2C   2s        -0.002545 -0.001390  0.000382 -0.000702  0.050153 -0.003130
  2C   3s        -0.003905  0.000417 -0.010336  0.010862  0.001150  0.003447
  2C   1pz       -0.000301 -0.000131  0.000095 -0.000123  0.000199 -0.000091
  2C   1px        0.000397  0.000032 -0.000701 -0.000508 -0.000226 -0.000447
  2C   1py       -0.000339 -0.000288 -0.000483 -0.000824  0.000259 -0.000681
  2C   2pz        0.012340  0.000333 -0.004053  0.004438 -0.003560  0.005227
  2C   2px       -0.014609  0.000590  0.010715  0.000326  0.004032 -0.010922
  2C   2py        0.015561  0.001424  0.000943  0.011302 -0.004679  0.001743
  2C   1dz2      -0.000223 -0.000115 -0.000657  0.000705 -0.001650 -0.000135
  2C   1dxz      -0.000994  0.000010 -0.000610 -0.000295 -0.001853 -0.000163
  2C   1dyz       0.001034 -0.000086 -0.000299 -0.000648  0.001874  0.000218
  2C   1dx2y2    -0.000048  0.000086  0.001086  0.001179 -0.000074 -0.000071
  2C   1dxy      -0.001263  0.000278  0.000903 -0.000915 -0.000173 -0.000076
  3N   1s         0.000094 -0.000029  0.988372 -0.000354 -0.000121  0.000043
  3N   2s         0.001174 -0.000256 -0.046750 -0.000582  0.000493  0.000890
  3N   3s        -0.007543  0.000463  0.045268  0.000541 -0.009688 -0.011387
  3N   1pz       -0.000025  0.000007 -0.000030 -0.000089 -0.000256  0.000072
  3N   1px       -0.000225  0.000020 -0.000055  0.000257  0.000645 -0.000122
  3N   1py       -0.000291  0.000037 -0.000128  0.000043  0.000028  0.000051
  3N   2pz       -0.001193 -0.000262  0.002154 -0.000628  0.002112  0.000439
  3N   2px       -0.002180  0.000256  0.003520  0.000645 -0.008311 -0.002731
  3N   2py       -0.005181 -0.000386  0.008933 -0.000891 -0.003282 -0.001708
  3N   1dz2       0.000103  0.000004  0.000903 -0.000144  0.000779  0.000019
  3N   1dxz      -0.000111  0.000005  0.000324 -0.000157  0.000885 -0.000033
  3N   1dyz      -0.000047 -0.000011 -0.000921  0.000166 -0.000034 -0.000005
  3N   1dx2y2     0.000197  0.000008  0.000759 -0.000015 -0.001013  0.000048
  3N   1dxy      -0.000228  0.000006 -0.000539 -0.000013 -0.000618 -0.000055
  4C   1s        -0.000096  0.000062 -0.000304 -0.000057 -0.000071  0.000875
  4C   2s         0.001653 -0.001189  0.000323  0.000868 -0.001572  0.000055
  4C   3s        -0.000546 -0.007578 -0.018168  0.006187  0.018108 -0.001911
  4C   1pz       -0.000256 -0.000049 -0.000579 -0.000025  0.000101  0.000003
  4C   1px        0.000399 -0.000162  0.000688  0.000004 -0.000270 -0.000047
  4C   1py       -0.000225 -0.000286 -0.000727 -0.000058 -0.000027 -0.000038
  4C   2pz        0.000556 -0.001046  0.004194  0.001440 -0.000195 -0.001499
  4C   2px       -0.001241  0.000651 -0.009349 -0.000192  0.011000  0.002843
  4C   2py        0.000104 -0.001926  0.000807  0.003369  0.010774 -0.000801
  4C   1dz2       0.000072 -0.000088 -0.000061 -0.000016 -0.000212 -0.000193
  4C   1dxz       0.000009 -0.000086 -0.000793  0.000015 -0.000331 -0.000186
  4C   1dyz      -0.000136  0.000149  0.000992  0.000019  0.000071  0.000088
  4C   1dx2y2     0.000157 -0.000078 -0.000238 -0.000042  0.000310  0.000114
  4C   1dxy      -0.000005 -0.000040 -0.001351  0.000025  0.000046  0.000112
  5C   1s        -0.000030 -0.000029  0.000019 -0.000007 -0.000095  0.001601
  5C   2s         0.000372  0.000321 -0.000202 -0.000043 -0.000691 -0.001942
  5C   3s        -0.001403  0.010591  0.012761 -0.009506 -0.033335  0.016772
  5C   1pz       -0.000041  0.000068 -0.000065  0.000054  0.000125  0.000363
  5C   1px        0.000039  0.000081 -0.000076 -0.000328 -0.000212 -0.001580
  5C   1py       -0.000061  0.000250 -0.000238 -0.000202  0.000093 -0.000715
  5C   2pz        0.000041 -0.005093 -0.002821  0.002614  0.006087 -0.001508
  5C   2px       -0.000331  0.003168  0.005118 -0.000155 -0.007772  0.003409
  5C   2py       -0.000236 -0.009369 -0.001745  0.006308  0.007119 -0.000256
  5C   1dz2       0.000038  0.000055  0.000081 -0.000070  0.000053  0.000736
  5C   1dxz      -0.000000 -0.000321  0.000094 -0.000035  0.000114  0.000657
  5C   1dyz       0.000002  0.000204  0.000049  0.000133 -0.000098  0.000146
  5C   1dx2y2    -0.000001  0.000149 -0.000172 -0.000121 -0.000018 -0.000956
  5C   1dxy      -0.000067 -0.000522 -0.000106 -0.000016  0.000081 -0.000872
  6O   1s         0.988695 -0.000918  0.000099 -0.000106  0.000259 -0.000103
  6O   2s        -0.043265 -0.000141  0.000957 -0.001041  0.001236 -0.001181
  6O   3s         0.039635  0.000775 -0.003501  0.004131 -0.014598  0.006864
  6O   1pz       -0.001544  0.000018  0.000105 -0.000100 -0.000542  0.000021
  6O   1px        0.001878 -0.000022 -0.000011  0.000234  0.000660 -0.000039
  6O   1py       -0.001898  0.000021  0.000249 -0.000007 -0.000665  0.000011
  6O   2pz        0.004398  0.000179 -0.000485  0.000576 -0.003967  0.000581
  6O   2px       -0.005373 -0.000389 -0.000696 -0.001995  0.004832 -0.000066
  6O   2py        0.005381  0.000045 -0.001912 -0.000615 -0.004865  0.001374
  6O   1dz2       0.000049 -0.000018  0.000101 -0.000093  0.000088  0.000036
  6O   1dxz       0.000194 -0.000068 -0.000042 -0.000164  0.000421  0.000044
  6O   1dyz      -0.000200  0.000041 -0.000140 -0.000046 -0.000415 -0.000002
  6O   1dx2y2     0.000007  0.000032  0.000226  0.000253 -0.000007 -0.000050
  6O   1dxy       0.000236 -0.000056 -0.000091  0.000069  0.000527 -0.000026
  7H   1s         0.000037  0.001062  0.000317 -0.000497 -0.000432 -0.000070
  7H   2s         0.000054  0.001968  0.000094 -0.000143 -0.000054 -0.000518
  7H   1pz        0.000021  0.000149  0.000043 -0.000032 -0.000094 -0.000137
  7H   1px       -0.000023 -0.000218 -0.000118 -0.000031  0.000140  0.000329
  7H   1py        0.000029  0.000146 -0.000014 -0.000111 -0.000089 -0.000002
  8O   1s        -0.000894 -0.988710  0.000029 -0.000126 -0.000086  0.000297
  8O   2s         0.000215  0.043190  0.000308 -0.001242 -0.001026  0.001763
  8O   3s        -0.000812 -0.040020 -0.001200  0.005248  0.007140 -0.017461
  8O   1pz        0.000009 -0.000614 -0.000056 -0.000011 -0.000002  0.000116
  8O   1px        0.000006 -0.001136  0.000077  0.000183 -0.000054  0.000608
  8O   1py        0.000028 -0.002688 -0.000061  0.000161 -0.000058  0.000908
  8O   2pz       -0.000054  0.001539  0.000452  0.000453 -0.000651  0.002815
  8O   2px        0.000343  0.003892 -0.000487 -0.001828  0.000446  0.001236
  8O   2py        0.000219  0.007812  0.000624 -0.000760 -0.001167  0.008248
  8O   1dz2       0.000047 -0.000146  0.000019 -0.000103  0.000066  0.000356
  8O   1dxz      -0.000005  0.000024  0.000006 -0.000100  0.000038 -0.000091
  8O   1dyz      -0.000009  0.000143 -0.000055 -0.000038 -0.000007 -0.000383
  8O   1dx2y2     0.000019 -0.000209  0.000060  0.000164 -0.000035  0.000595
  8O   1dxy      -0.000077  0.000152  0.000017  0.000131 -0.000079 -0.000368
  9H   1s        -0.000982  0.000799  0.000197 -0.003708 -0.000414  0.000106
  9H   2s         0.000318 -0.000055 -0.000823  0.002254  0.001153  0.000888
  9H   1pz       -0.000187 -0.000208 -0.000010 -0.000900 -0.000282  0.000435
  9H   1px        0.000055  0.000064  0.000093  0.003282 -0.000212 -0.000460
  9H   1py       -0.000405 -0.000447  0.000069  0.001132 -0.000915  0.000605
 10H   1s        -0.000919 -0.000143  0.003921 -0.000119 -0.000214  0.000368
 10H   2s         0.000390  0.000092 -0.002076  0.000795  0.000527  0.000043
 10H   1pz       -0.000185 -0.000011  0.000926 -0.000017 -0.000333 -0.000025
 10H   1px        0.000409  0.000039  0.001083  0.000123  0.000968  0.000155
 10H   1py       -0.000037  0.000012  0.003397  0.000085  0.000167  0.000098
 11H   1s        -0.000228  0.000400 -0.000292 -0.000115  0.001543  0.000501
 11H   2s        -0.000624  0.001237 -0.000726 -0.000394  0.003072  0.001378
 11H   1pz       -0.000019 -0.000010 -0.000172 -0.000094 -0.000090  0.000067
 11H   1px       -0.000089  0.000089  0.000239  0.000045 -0.000061 -0.000093
 11H   1py       -0.000138  0.000065 -0.000181 -0.000188 -0.000285  0.000071
                      6         7         8         9        10        11   
                 -10.32319 -10.25547  -1.10649  -1.06910  -1.00736  -0.95067
                   2.00000   2.00000   2.00000   2.00000   2.00000   2.00000
                  --------  --------  --------  --------  --------  --------
  0C   1s        -0.001022  0.000891 -0.064288  0.156843  0.004358 -0.023310
  0C   2s         0.000171  0.001864  0.123947 -0.312907 -0.011662  0.045378
  0C   3s         0.005154 -0.011259 -0.001627 -0.012102 -0.008788 -0.018325
  0C   1pz        0.000009  0.000573 -0.007110 -0.022370 -0.023462 -0.071114
  0C   1px       -0.000255 -0.001878  0.026625 -0.074218 -0.021577  0.023066
  0C   1py       -0.000238 -0.000503  0.009751 -0.131567 -0.080162 -0.152362
  0C   2pz       -0.002555  0.001550  0.000485 -0.003105  0.000436 -0.011032
  0C   2px       -0.000407 -0.002151  0.007028 -0.021829 -0.008911  0.018248
  0C   2py       -0.006734  0.001631  0.008388 -0.030034 -0.008060 -0.008644
  0C   1dz2      -0.000165 -0.000774 -0.004518  0.012418  0.001101  0.002255
  0C   1dxz      -0.000027 -0.000682 -0.001752  0.000199 -0.002391 -0.007816
  0C   1dyz       0.000068 -0.000165  0.004999 -0.010329  0.000072  0.003851
  0C   1dx2y2    -0.000056  0.001009 -0.004126  0.012866  0.002905  0.005007
  0C   1dxy       0.000209  0.000934  0.002269 -0.012729 -0.003859 -0.013300
  1N   1s         0.000107 -0.000056  0.101129 -0.053314  0.051105  0.220011
  1N   2s         0.001468 -0.000539  0.194592 -0.103969  0.098761  0.443718
  1N   3s        -0.015030  0.004746  0.104297 -0.049855  0.068902  0.206831
  1N   1pz        0.000013  0.000102  0.005662  0.024351 -0.008307  0.001476
  1N   1px        0.000066 -0.000030  0.016609 -0.014927  0.032965  0.013186
  1N   1py        0.000101  0.000219  0.030982  0.044953  0.013192  0.017144
  1N   2pz       -0.000107  0.001011  0.005121 -0.010837  0.005251  0.011109
  1N   2px        0.002412 -0.000081 -0.029155  0.017150 -0.020224 -0.038137
  1N   2py        0.002204  0.002412 -0.017170 -0.009241 -0.007711 -0.011564
  1N   1dz2      -0.000012  0.000046 -0.003718  0.001080 -0.002232 -0.004803
  1N   1dxz      -0.000028  0.000056 -0.001732  0.002397 -0.001264 -0.004146
  1N   1dyz       0.000028  0.000034  0.005128 -0.002939  0.000117  0.005502
  1N   1dx2y2    -0.000000 -0.000109 -0.004264  0.000681  0.001320 -0.001801
  1N   1dxy      -0.000025 -0.000063  0.000800  0.002478  0.002766  0.000456
  2C   1s         0.000124 -0.000275 -0.171881 -0.054417  0.000731 -0.024191
  2C   2s        -0.001186  0.001405  0.340889  0.111669 -0.004119  0.048216
  2C   3s         0.004715  0.000016  0.013387  0.013873 -0.022059 -0.005647
  2C   1pz        0.000119  0.000105 -0.041224 -0.040594  0.104431  0.043203
  2C   1px        0.000142 -0.000123  0.047991  0.034817 -0.161141  0.053697
  2C   1py        0.000440  0.000133 -0.052849 -0.064754  0.093336  0.161739
  2C   2pz        0.005249 -0.000647 -0.017033 -0.005545  0.005312  0.000624
  2C   2px       -0.001875  0.000629  0.019860  0.003454 -0.014406  0.026081
  2C   2py        0.011061 -0.000955 -0.021790 -0.010182 -0.001590  0.028234
  2C   1dz2      -0.000067  0.000036 -0.008775 -0.001850 -0.003353 -0.002571
  2C   1dxz      -0.000353  0.000045 -0.013758 -0.006172  0.002610  0.005670
  2C   1dyz       0.000184 -0.000060  0.013755  0.004759 -0.006770  0.004139
  2C   1dx2y2     0.000207  0.000018 -0.000217  0.001704  0.004907 -0.012091
  2C   1dxy      -0.000317  0.000024 -0.007174 -0.005658  0.013512  0.005518
  3N   1s        -0.000109 -0.000060  0.102176  0.022572  0.189818 -0.117042
  3N   2s         0.000411 -0.000425  0.198067  0.044736  0.377475 -0.238861
  3N   3s        -0.011912  0.003848  0.100716  0.014872  0.183746 -0.089403
  3N   1pz        0.000248  0.000130  0.007790  0.007383 -0.025504  0.004956
  3N   1px       -0.000407 -0.000274 -0.036254 -0.012279  0.015168 -0.025563
  3N   1py        0.000197  0.000040 -0.017855  0.005689 -0.047599 -0.013862
  3N   2pz       -0.006576  0.000820  0.003117 -0.000934  0.016442 -0.008221
  3N   2px        0.006998 -0.002148  0.017689  0.005109  0.001107  0.011020
  3N   2py       -0.009107 -0.000172  0.025811  0.002924  0.041810 -0.009067
  3N   1dz2       0.000445  0.000065 -0.003712 -0.000589 -0.005002  0.001545
  3N   1dxz       0.001068  0.000045 -0.004647 -0.001358 -0.005184  0.004044
  3N   1dyz      -0.000976 -0.000118  0.001739  0.000008  0.005123 -0.003000
  3N   1dx2y2    -0.000104  0.000091  0.003434  0.001633 -0.000077 -0.001247
  3N   1dxy       0.000892  0.000023  0.001289 -0.000065  0.000278  0.003035
  4C   1s         0.988324  0.004827 -0.037795  0.001510 -0.108249  0.053204
  4C   2s         0.048211  0.003885  0.068266 -0.002699  0.206296 -0.104485
  4C   3s        -0.012181 -0.013713 -0.007892  0.010061 -0.005504  0.001212
  4C   1pz       -0.000643  0.000865 -0.017388 -0.003586 -0.046038  0.028100
  4C   1px        0.000587  0.000408  0.029572 -0.000793  0.071019 -0.025706
  4C   1py       -0.000989  0.002558 -0.012752 -0.009682 -0.041212  0.043201
  4C   2pz       -0.004550  0.000797 -0.002358 -0.001502 -0.007657  0.007490
  4C   2px        0.005938 -0.001509 -0.001656  0.002915 -0.000333  0.003021
  4C   2py       -0.005181  0.000427 -0.007527 -0.000737 -0.019287  0.021622
  4C   1dz2      -0.001755 -0.000768 -0.001692  0.000535 -0.003837  0.000871
  4C   1dxz      -0.001408 -0.000078 -0.003233 -0.000459 -0.007603  0.003480
  4C   1dyz       0.001375  0.000629  0.002899  0.000239  0.007992 -0.004917
  4C   1dx2y2    -0.000016 -0.000700  0.000368  0.000294 -0.000556  0.001752
  4C   1dxy       0.000775  0.000743 -0.002052 -0.001488 -0.006052  0.005350
  5C   1s         0.005568 -0.988430 -0.021656  0.026336 -0.038722  0.000795
  5C   2s        -0.003101 -0.046621  0.038756 -0.047479  0.070345 -0.001876
  5C   3s         0.002385  0.031594  0.030517 -0.038897  0.042577 -0.001537
  5C   1pz        0.000472 -0.000041 -0.008667  0.005213 -0.017478 -0.004283
  5C   1px        0.001076  0.000311  0.013327 -0.024637  0.005433  0.016015
  5C   1py        0.002270  0.000216 -0.007811 -0.012306 -0.037687  0.005782
  5C   2pz        0.003919 -0.002276 -0.005519  0.009870 -0.006999 -0.001351
  5C   2px       -0.005522  0.002471  0.006098 -0.019217 -0.003179  0.016693
  5C   2py        0.004046 -0.003101 -0.007421  0.004783 -0.020568  0.013719
  5C   1dz2       0.000717  0.001295 -0.001502  0.002158 -0.001934  0.000427
  5C   1dxz       0.000137  0.001210 -0.001054  0.001462 -0.000785 -0.001845
  5C   1dyz      -0.000798 -0.001507  0.000961  0.000549  0.003150 -0.000881
  5C   1dx2y2     0.000832  0.000400  0.000064 -0.002380 -0.002949  0.003354
  5C   1dxy      -0.000466 -0.000024  0.000962 -0.003029  0.000101 -0.001474
  6O   1s        -0.000092  0.000022  0.176829  0.094453 -0.147518 -0.047044
  6O   2s        -0.000992  0.000240  0.347923  0.186951 -0.294334 -0.094312
  6O   3s         0.006147 -0.001173  0.160387  0.091618 -0.159042 -0.056006
  6O   1pz        0.000005 -0.000003  0.063830  0.031884 -0.042991 -0.011502
  6O   1px       -0.000013 -0.000002 -0.077734 -0.040565  0.047177  0.031015
  6O   1py       -0.000003 -0.000010  0.078295  0.037333 -0.058035  0.003288
  6O   2pz        0.000389 -0.000123  0.011350  0.005378 -0.007285 -0.001942
  6O   2px       -0.001069  0.000190 -0.014079 -0.007123  0.007937  0.006340
  6O   2py       -0.000132 -0.000110  0.013658  0.006014 -0.009901  0.001679
  6O   1dz2       0.000056 -0.000005 -0.001105 -0.000433  0.000373  0.000028
  6O   1dxz       0.000054  0.000005 -0.006172 -0.002969  0.002951  0.001894
  6O   1dyz      -0.000111 -0.000002  0.006245  0.002713 -0.003792  0.000365
  6O   1dx2y2     0.000071 -0.000004 -0.000077  0.000322  0.001011 -0.002765
  6O   1dxy       0.000038  0.000014 -0.008184 -0.003866  0.004853  0.001152
  7H   1s        -0.000986  0.004901  0.004765 -0.010525  0.007517 -0.003430
  7H   2s        -0.002717 -0.005735  0.001127 -0.005365  0.000588  0.000081
  7H   1pz       -0.000275 -0.001381 -0.000582  0.001090 -0.000861  0.000290
  7H   1px        0.000029  0.001726  0.000852 -0.001877  0.000865 -0.000680
  7H   1py       -0.000651 -0.001652 -0.000567  0.000775 -0.001246  0.000023
  8O   1s        -0.000059 -0.000044  0.057719 -0.218846 -0.063242 -0.096251
  8O   2s        -0.000627 -0.000334  0.112875 -0.432556 -0.126933 -0.193461
  8O   3s         0.003522  0.001817  0.055175 -0.210563 -0.062495 -0.111738
  8O   1pz        0.000005  0.000102 -0.010440  0.033767  0.007532  0.003884
  8O   1px        0.000015 -0.000188 -0.012591  0.051027  0.014705  0.029327
  8O   1py        0.000029  0.000062 -0.038761  0.135950  0.033742  0.039709
  8O   2pz        0.000069 -0.000606 -0.002391  0.006189  0.000639  0.000107
  8O   2px       -0.000550  0.001095 -0.002240  0.009073  0.002854  0.005726
  8O   2py       -0.000398 -0.000380 -0.008212  0.024621  0.004515  0.006154
  8O   1dz2       0.000023  0.000106 -0.001546  0.005105  0.001147  0.001310
  8O   1dxz       0.000000  0.000073  0.000721 -0.002669 -0.000695 -0.001023
  8O   1dyz      -0.000052 -0.000058  0.001506 -0.004216 -0.000765  0.000122
  8O   1dx2y2     0.000064 -0.000015 -0.002786  0.008633  0.001837  0.001168
  8O   1dxy       0.000004 -0.000076  0.001993 -0.007439 -0.001898 -0.003180
  9H   1s         0.000417 -0.000512  0.049553 -0.029536  0.014552  0.134731
  9H   2s         0.000086  0.000431  0.005053 -0.002108  0.001497  0.001668
  9H   1pz        0.000012  0.000010  0.001772 -0.002213  0.000705  0.004554
  9H   1px       -0.000093 -0.000071 -0.007651  0.004785 -0.001996 -0.017336
  9H   1py       -0.000066 -0.000047 -0.003447 -0.000576 -0.000301 -0.006481
 10H   1s        -0.001146 -0.000584  0.050216  0.015958  0.098505 -0.087535
 10H   2s         0.000340  0.000173  0.004083  0.001191  0.002824 -0.001395
 10H   1pz        0.000541 -0.000026  0.001642  0.000390  0.004431 -0.003245
 10H   1px       -0.000893  0.000088  0.003374  0.001328  0.002583 -0.003142
 10H   1py        0.000425  0.000027  0.007513  0.002324  0.013600 -0.011239
 11H   1s        -0.004428 -0.000118  0.008604  0.000252  0.032983 -0.022339
 11H   2s         0.006052  0.001421  0.000918 -0.000789  0.004700 -0.000206
 11H   1pz        0.000881 -0.000127 -0.000515 -0.000112 -0.001517  0.000902
 11H   1px       -0.002713 -0.000293  0.001893  0.000086  0.005720 -0.003428
 11H   1py       -0.000595 -0.000613  0.000662 -0.000189  0.002099 -0.001276
                     12        13        14        15        16        17   
                  -0.82082  -0.71484  -0.68719  -0.61967  -0.58449  -0.54090
                   2.00000   2.00000   2.00000   2.00000   2.00000   2.00000
                  --------  --------  --------  --------  --------  --------
  0C   1s         0.060506  0.059034  0.121214  0.040353  0.049546 -0.029756
  0C   2s        -0.124661 -0.123354 -0.269001 -0.087640 -0.111045  0.070900
  0C   3s        -0.011731 -0.015200 -0.057988 -0.010451 -0.040260  0.080423
  0C   1pz       -0.010438 -0.034443  0.083980  0.063974 -0.100776 -0.055410
  0C   1px        0.107567  0.133372 -0.041819 -0.075148  0.232036  0.065405
  0C   1py        0.084225  0.051226  0.164932  0.081356 -0.011925 -0.070217
  0C   2pz       -0.008369 -0.012503  0.016786  0.022604 -0.033229  0.013466
  0C   2px        0.029950  0.050591 -0.003033 -0.009655  0.087598 -0.056629
  0C   2py        0.009965  0.020870  0.038452  0.046083  0.007438 -0.024636
  0C   1dz2       0.002822  0.001607  0.000847  0.001023 -0.000430  0.000003
  0C   1dxz       0.003050 -0.000676  0.010885 -0.002194 -0.002257  0.003058
  0C   1dyz       0.001623 -0.000764 -0.003987 -0.004674  0.000168  0.007130
  0C   1dx2y2    -0.005622  0.001810 -0.008474  0.008424  0.002535 -0.012432
  0C   1dxy      -0.003812 -0.002676  0.010488  0.000362 -0.001168 -0.003508
  1N   1s         0.031976  0.060726 -0.014835  0.028756  0.006700  0.003163
  1N   2s         0.069707  0.130727 -0.030309  0.061387  0.014593  0.010718
  1N   3s         0.015780  0.045777 -0.044269  0.049049 -0.003729  0.070947
  1N   1pz        0.029995  0.034405  0.139333  0.100577 -0.065058 -0.081838
  1N   1px       -0.031430 -0.150154 -0.042627 -0.199521 -0.037548  0.313371
  1N   1py        0.042003 -0.068562  0.300791  0.044478 -0.199205  0.118458
  1N   2pz       -0.013740 -0.012240 -0.055162 -0.045374  0.028834  0.034081
  1N   2px        0.017489  0.051143  0.020083  0.088627  0.013196 -0.128280
  1N   2py       -0.016079  0.022052 -0.115800 -0.021503  0.084759 -0.047096
  1N   1dz2      -0.001058  0.000501 -0.002134 -0.000025 -0.000007 -0.000083
  1N   1dxz       0.002596 -0.000343  0.005502  0.000893  0.000326  0.000999
  1N   1dyz      -0.000033  0.000898 -0.000430 -0.001715 -0.001029  0.003941
  1N   1dx2y2    -0.003186 -0.000653 -0.006307  0.000991  0.000851 -0.006028
  1N   1dxy       0.003923 -0.001883  0.008419  0.002177  0.001131 -0.002337
  2C   1s        -0.053449  0.087927 -0.104595 -0.012220 -0.017030 -0.043201
  2C   2s         0.116818 -0.192025  0.236413  0.032043  0.040130  0.109061
  2C   3s         0.029082 -0.019654  0.050939  0.019423  0.010403  0.047665
  2C   1pz        0.051763 -0.065041  0.068781 -0.017256  0.008618  0.019873
  2C   1px       -0.094524  0.180744  0.027150  0.030527 -0.196416  0.046239
  2C   1py        0.031255  0.024139  0.197834 -0.011440 -0.179644  0.096255
  2C   2pz        0.008500 -0.019039  0.024784 -0.016507  0.002836  0.017522
  2C   2px       -0.015725  0.048994  0.003553  0.016492 -0.043704 -0.048091
  2C   2py        0.004930  0.003054  0.064909 -0.023931 -0.037702 -0.005956
  2C   1dz2      -0.005246  0.003503 -0.004272 -0.005857 -0.000632  0.000034
  2C   1dxz       0.001012  0.003724 -0.001590  0.008147 -0.003166  0.004449
  2C   1dyz      -0.002792 -0.000934  0.002643 -0.005939 -0.003037  0.008072
  2C   1dx2y2     0.001949 -0.003288 -0.001433 -0.002997  0.007552 -0.015279
  2C   1dxy       0.012213 -0.002335  0.003939  0.021550  0.001106 -0.003232
  3N   1s         0.080377  0.005375 -0.046639  0.016452 -0.020970 -0.042473
  3N   2s         0.171224  0.011892 -0.099105  0.032101 -0.044435 -0.094165
  3N   3s         0.063739 -0.008837 -0.034377  0.016244 -0.018981 -0.155591
  3N   1pz        0.063076 -0.108507 -0.043878  0.131810  0.081960  0.067686
  3N   1px       -0.085443  0.271616 -0.061507 -0.032980 -0.250432  0.024416
  3N   1py        0.068563  0.009547 -0.171456  0.292224 -0.053599  0.192497
  3N   2pz       -0.025374  0.040726  0.014998 -0.053578 -0.038184 -0.023233
  3N   2px        0.038509 -0.114607  0.018367  0.012377  0.110043 -0.038667
  3N   2py       -0.023356 -0.016534  0.055901 -0.119844  0.018198 -0.097098
  3N   1dz2      -0.001818  0.001840 -0.000702 -0.000194 -0.000397 -0.000767
  3N   1dxz       0.000279 -0.001889 -0.000305  0.002223 -0.002019 -0.000570
  3N   1dyz      -0.003240  0.003270 -0.000893 -0.001534 -0.001272 -0.003370
  3N   1dx2y2     0.003530 -0.001587  0.001430 -0.000865  0.004005  0.004780
  3N   1dxy       0.006069 -0.007413  0.001714  0.003382  0.000143  0.003679
  4C   1s         0.151082 -0.119137 -0.067340  0.028873 -0.061428 -0.032495
  4C   2s        -0.300294  0.251940  0.140804 -0.069725  0.128711  0.058797
  4C   3s        -0.054149  0.080327  0.064466 -0.027532  0.090388  0.024196
  4C   1pz       -0.039671 -0.043165  0.017638  0.104016  0.109007  0.094336
  4C   1px       -0.020202 -0.036189  0.001130 -0.143366 -0.084542 -0.279625
  4C   1py       -0.118806 -0.143785  0.044814  0.110657  0.183233 -0.052759
  4C   2pz       -0.014838 -0.018629  0.014511  0.021645  0.035864  0.000792
  4C   2px        0.002273  0.005634  0.007084 -0.056446 -0.013009 -0.059076
  4C   2py       -0.034375 -0.040315  0.043150 -0.004186  0.075438 -0.058519
  4C   1dz2       0.006026 -0.001193 -0.000839  0.000383 -0.000327 -0.000969
  4C   1dxz      -0.000837 -0.004352 -0.002959  0.008701  0.001740  0.004925
  4C   1dyz      -0.004068  0.007380 -0.000591  0.001226 -0.004799 -0.003710
  4C   1dx2y2     0.006220 -0.003694  0.004313 -0.012155  0.003692 -0.001558
  4C   1dxy      -0.007712 -0.007539 -0.000410  0.005236  0.005944  0.008679
  5C   1s         0.193705  0.086500 -0.003837 -0.107530  0.012623  0.046586
  5C   2s        -0.373320 -0.172718  0.003797  0.222942 -0.031354 -0.099560
  5C   3s        -0.108671 -0.039286 -0.041771  0.130673 -0.037968 -0.080092
  5C   1pz        0.035919  0.007940  0.011065  0.065955 -0.002241  0.012187
  5C   1px       -0.012380 -0.077490 -0.092240 -0.099967 -0.180244 -0.033989
  5C   1py        0.076262 -0.059566 -0.066935  0.060905 -0.189821 -0.004650
  5C   2pz        0.019013  0.014878  0.005673  0.011576  0.006708  0.013585
  5C   2px       -0.017355 -0.040069 -0.015400 -0.032691 -0.042422 -0.080089
  5C   2py        0.029285 -0.004191 -0.001703 -0.004822 -0.026789 -0.048279
  5C   1dz2       0.007095  0.001927 -0.000653 -0.001957 -0.000079 -0.000836
  5C   1dxz       0.002801  0.004205  0.004116 -0.000037  0.004315  0.000640
  5C   1dyz      -0.004838  0.000769  0.002482 -0.000204  0.002480 -0.004020
  5C   1dx2y2     0.002730 -0.006028 -0.008104  0.000219 -0.008331  0.004076
  5C   1dxy      -0.006024 -0.000628  0.002343  0.003529  0.001509  0.005303
  6O   1s        -0.055007  0.039258 -0.047733 -0.046043 -0.010004 -0.014807
  6O   2s        -0.111576  0.082907 -0.100029 -0.091737 -0.020725 -0.031631
  6O   3s        -0.078617  0.044683 -0.063238 -0.116258 -0.019668 -0.021855
  6O   1pz       -0.004239 -0.006430  0.010719  0.018624  0.007574  0.015098
  6O   1px       -0.002193  0.038555  0.024709 -0.023021 -0.080684 -0.012219
  6O   1py       -0.012731  0.023558  0.051783  0.022494 -0.063822  0.024733
  6O   2pz       -0.000460 -0.005626  0.007006  0.006298  0.003768  0.008466
  6O   2px       -0.002162  0.018995  0.006996 -0.007440 -0.040955 -0.002287
  6O   2py       -0.003353  0.005528  0.024483  0.007956 -0.032586  0.018545
  6O   1dz2      -0.000263 -0.000034 -0.000108 -0.001061 -0.000039 -0.000048
  6O   1dxz      -0.000443  0.001810  0.000776 -0.001727 -0.003448  0.000361
  6O   1dyz      -0.000317  0.000832  0.002242  0.001966 -0.002504  0.001640
  6O   1dx2y2     0.000919 -0.003235 -0.003686 -0.000318  0.007276 -0.002442
  6O   1dxy       0.000368  0.000803 -0.001061 -0.001169 -0.000589 -0.000988
  7H   1s        -0.093648 -0.060196  0.015198  0.170298 -0.017195 -0.034032
  7H   2s        -0.017465 -0.022470  0.007017  0.027616 -0.006603 -0.012998
  7H   1pz        0.006654  0.003348 -0.000984 -0.006714  0.000269  0.001266
  7H   1px       -0.007359 -0.005199 -0.000335  0.007949 -0.004788 -0.001029
  7H   1py        0.008938  0.002968 -0.002776 -0.008480 -0.004229  0.002076
  8O   1s         0.043063  0.021539  0.079172  0.002358  0.019436  0.005407
  8O   2s         0.089081  0.047047  0.164327  0.007849  0.042167  0.011105
  8O   3s         0.051754  0.014455  0.125228 -0.023178  0.026354  0.019022
  8O   1pz       -0.009247 -0.016416  0.021848  0.017922 -0.045271 -0.008699
  8O   1px        0.011341  0.035601 -0.018128 -0.029128  0.104169  0.016855
  8O   1py       -0.011318 -0.004209  0.035474  0.014532 -0.005415 -0.004306
  8O   2pz       -0.001651 -0.004787  0.010606  0.009033 -0.020492 -0.008169
  8O   2px        0.005133  0.015923 -0.005542 -0.010849  0.051282  0.015173
  8O   2py        0.001156  0.004450  0.020564  0.011265  0.001781 -0.004715
  8O   1dz2       0.000387  0.000782  0.000985 -0.000700  0.002101  0.000923
  8O   1dxz       0.000184 -0.000256  0.000147 -0.000386 -0.000418  0.000388
  8O   1dyz       0.001003  0.001414 -0.002509 -0.001482  0.003356  0.001121
  8O   1dx2y2    -0.001434 -0.001379  0.002913  0.002248 -0.003488 -0.001802
  8O   1dxy      -0.001363 -0.002740  0.000503  0.002141 -0.006772 -0.002227
  9H   1s         0.034695  0.154260 -0.020746  0.160784  0.065308 -0.277928
  9H   2s        -0.002222  0.010304 -0.001183  0.016838  0.010449 -0.058020
  9H   1pz        0.000720  0.004239 -0.004394  0.001865  0.004845 -0.005808
  9H   1px       -0.003657 -0.014732  0.002986 -0.011880 -0.006241  0.019782
  9H   1py       -0.001963 -0.004596 -0.007807 -0.007544  0.005591  0.005883
 10H   1s         0.090780  0.037793 -0.168924  0.230066 -0.099819  0.120829
 10H   2s         0.002104  0.000992 -0.021109  0.035020 -0.020409  0.025314
 10H   1pz        0.001760  0.004568 -0.004304  0.003592 -0.006057  0.002490
 10H   1px        0.005010 -0.006517 -0.004292  0.007932  0.006025  0.002172
 10H   1py        0.009478  0.004630 -0.015033  0.016996 -0.008812  0.008375
 11H   1s        -0.076663  0.132083  0.049532  0.037448  0.084480  0.251997
 11H   2s        -0.012686  0.024833  0.012980 -0.005652  0.020088  0.077347
 11H   1pz        0.001482 -0.003306 -0.001131  0.000860 -0.000079 -0.002716
 11H   1px       -0.008801  0.011064  0.004449  0.001784  0.005463  0.012734
 11H   1py       -0.005337  0.003139  0.001754  0.003954  0.005394  0.006305
                     18        19        20        21        22        23   
                  -0.50714  -0.48983  -0.46840  -0.44130  -0.43646  -0.42907
                   2.00000   2.00000   2.00000   2.00000   2.00000   2.00000
                  --------  --------  --------  --------  --------  --------
  0C   1s         0.000012 -0.070277 -0.038007  0.049132  0.021257 -0.000019
  0C   2s        -0.000013  0.171033  0.094930 -0.110903 -0.055224  0.000044
  0C   3s        -0.000078  0.058269  0.058274 -0.059353  0.041045 -0.000007
  0C   1pz       -0.149198  0.062075  0.023141 -0.098740  0.029883  0.305683
  0C   1px       -0.061701 -0.025198 -0.052443  0.066258 -0.267437  0.126289
  0C   1py        0.060279  0.127730  0.003496 -0.176246 -0.199143 -0.123737
  0C   2pz       -0.065260  0.018266 -0.021348  0.003372  0.038637  0.162310
  0C   2px       -0.026992 -0.039204  0.000738  0.056297 -0.070395  0.067148
  0C   2py        0.026442  0.004974 -0.052116  0.066163  0.024009 -0.065455
  0C   1dz2       0.004969  0.001205 -0.002304  0.002828  0.003708  0.002235
  0C   1dxz      -0.002734 -0.004148  0.003541 -0.007204 -0.002812  0.008861
  0C   1dyz       0.001904  0.000448 -0.002345  0.001005 -0.001274  0.011232
  0C   1dx2y2    -0.000383  0.004590 -0.001579  0.007721  0.005138  0.008194
  0C   1dxy       0.002852 -0.005771  0.008761 -0.011460 -0.007607  0.001488
  1N   1s         0.000002 -0.014034 -0.026450  0.007988  0.011008  0.000013
  1N   2s         0.000002 -0.030198 -0.058243  0.019653  0.016261  0.000020
[...]

 E=   0.222831 au      6.064 eV    48905.8 cm**-1
    28a ->  29a  : n=  0.87426820
    27a ->  30a  : n=  0.12477223


------------------------------------------
NATURAL TRANSITION ORBITALS FOR STATE    4
------------------------------------------

Making the (pseudo)densities                       ... done
Solving eigenvalue problem for the occupied space  ... done
Solving eigenvalue problem for the virtual space   ... done
Natural Transition Orbitals were saved in /dev/shm/3470117/uracil_s0_vee.inp-3470117/uracil_s0_vee.s4.nto
Threshold for printing occupation numbers 0.001000

 E=   0.233874 au      6.364 eV    51329.5 cm**-1
    28a ->  29a  : n=  0.92213685
    27a ->  30a  : n=  0.05736702
    26a ->  31a  : n=  0.01336500
    25a ->  32a  : n=  0.00239587
    24a ->  33a  : n=  0.00145084
    23a ->  34a  : n=  0.00117999


------------------------------------------
NATURAL TRANSITION ORBITALS FOR STATE    5
------------------------------------------

Making the (pseudo)densities                       ... done
Solving eigenvalue problem for the occupied space  ... done
Solving eigenvalue problem for the virtual space   ... done
Natural Transition Orbitals were saved in /dev/shm/3470117/uracil_s0_vee.inp-3470117/uracil_s0_vee.s5.nto
Threshold for printing occupation numbers 0.001000

 E=   0.240012 au      6.531 eV    52676.5 cm**-1
    28a ->  29a  : n=  0.68544821
    27a ->  30a  : n=  0.31234591
    26a ->  31a  : n=  0.00138972


------------------------------------------
NATURAL TRANSITION ORBITALS FOR STATE    6
------------------------------------------

Making the (pseudo)densities                       ... done
Solving eigenvalue problem for the occupied space  ... done
Solving eigenvalue problem for the virtual space   ... done
Natural Transition Orbitals were saved in /dev/shm/3470117/uracil_s0_vee.inp-3470117/uracil_s0_vee.s6.nto
Threshold for printing occupation numbers 0.001000

 E=   0.257452 au      7.006 eV    56504.1 cm**-1
    28a ->  29a  : n=  0.72833626
    27a ->  30a  : n=  0.21723030
    26a ->  31a  : n=  0.05262380


------------------------------------------
NATURAL TRANSITION ORBITALS FOR STATE    7
------------------------------------------

Making the (pseudo)densities                       ... done
Solving eigenvalue problem for the occupied space  ... done
Solving eigenvalue problem for the virtual space   ... done
Natural Transition Orbitals were saved in /dev/shm/3470117/uracil_s0_vee.inp-3470117/uracil_s0_vee.s7.nto
Threshold for printing occupation numbers 0.001000

 E=   0.257910 au      7.018 eV    56604.7 cm**-1
    28a ->  29a  : n=  0.77806949
    27a ->  30a  : n=  0.20300058
    26a ->  31a  : n=  0.01621468
    25a ->  32a  : n=  0.00205302


------------------------------------------
NATURAL TRANSITION ORBITALS FOR STATE    8
------------------------------------------

Making the (pseudo)densities                       ... done
Solving eigenvalue problem for the occupied space  ... done
Solving eigenvalue problem for the virtual space   ... done
Natural Transition Orbitals were saved in /dev/shm/3470117/uracil_s0_vee.inp-3470117/uracil_s0_vee.s8.nto
Threshold for printing occupation numbers 0.001000

 E=   0.262214 au      7.135 eV    57549.3 cm**-1
    28a ->  29a  : n=  0.86201571
    27a ->  30a  : n=  0.07854892
    26a ->  31a  : n=  0.03730057
    25a ->  32a  : n=  0.00913340
    24a ->  33a  : n=  0.00368510
    23a ->  34a  : n=  0.00288245
    22a ->  35a  : n=  0.00170173
    21a ->  36a  : n=  0.00139786
    20a ->  37a  : n=  0.00108902


-----------------------------
TD-DFT/TDA-EXCITATION SPECTRA
-----------------------------

Center of mass = (  1.1745, -0.4295,  0.1707)
Generating CIS transition densities           ... done

----------------------------------------------------------------------------------------------------
                     ABSORPTION SPECTRUM VIA TRANSITION ELECTRIC DIPOLE MOMENTS    
----------------------------------------------------------------------------------------------------
     Transition      Energy     Energy  Wavelength fosc(D2)      D2        DX        DY        DZ   
                      (eV)      (cm-1)    (nm)                 (au**2)    (au)      (au)      (au)  
----------------------------------------------------------------------------------------------------
  0-1A  ->  1-1A    4.853593   39146.9   255.4   0.000239959   0.00202   0.01607  -0.01595   0.03880
  0-1A  ->  2-1A    5.706475   46025.8   217.3   0.159270387   1.13922   0.19741   0.99831   0.32191
  0-1A  ->  3-1A    6.063551   48905.8   204.5   0.000001058   0.00001   0.00093  -0.00070   0.00240
  0-1A  ->  4-1A    6.364048   51329.5   194.8   0.055895273   0.35850   0.16167  -0.50820  -0.27220
  0-1A  ->  5-1A    6.531059   52676.5   189.8   0.000038226   0.00024  -0.00565   0.00499  -0.01350
  0-1A  ->  6-1A    7.005616   56504.1   177.0   0.000001452   0.00001  -0.00215   0.00042  -0.00191
  0-1A  ->  7-1A    7.018093   56604.7   176.7   0.000050025   0.00029  -0.00545   0.00588  -0.01505
  0-1A  ->  8-1A    7.135202   57549.3   173.8   0.143591420   0.82142   0.83763   0.23996  -0.24942

----------------------------------------------------------------------------------------------------
                     ABSORPTION SPECTRUM VIA TRANSITION VELOCITY DIPOLE MOMENTS    
----------------------------------------------------------------------------------------------------
     Transition      Energy     Energy  Wavelength fosc(P2)      P2        PX        PY        PZ   
                      (eV)      (cm-1)    (nm)                 (au**2)    (au)      (au)      (au)  
----------------------------------------------------------------------------------------------------
  0-1A  ->  1-1A    4.853593   39146.9   255.4   0.000918574   0.00025   0.00559  -0.00552   0.01357
  0-1A  ->  2-1A    5.706475   46025.8   217.3   0.001303738   0.00041   0.01377   0.01485   0.00028
  0-1A  ->  3-1A    6.063551   48905.8   204.5   0.000111680   0.00004   0.00218  -0.00213   0.00530
  0-1A  ->  4-1A    6.364048   51329.5   194.8   0.000269969   0.00009  -0.00906  -0.00159   0.00317
  0-1A  ->  5-1A    6.531059   52676.5   189.8   0.000376065   0.00014  -0.00417   0.00409  -0.01006
  0-1A  ->  6-1A    7.005616   56504.1   177.0   0.000378179   0.00015  -0.00431   0.00422  -0.01047
  0-1A  ->  7-1A    7.018093   56604.7   176.7   0.000635568   0.00025  -0.00562   0.00554  -0.01355
  0-1A  ->  8-1A    7.135202   57549.3   173.8   0.005121667   0.00201  -0.03649   0.01525   0.02123

------------------------------------------------------------------------------------------
                     CD SPECTRUM VIA TRANSITION ELECTRIC DIPOLE MOMENTS    
------------------------------------------------------------------------------------------
     Transition      Energy     Energy  Wavelength    R        MX        MY        MZ   
                      (eV)      (cm-1)    (nm)   (1e40*cgs)   (au)      (au)      (au)  
------------------------------------------------------------------------------------------
  0-1A  ->  1-1A    4.853593   39146.9   255.4   -0.03167  -0.16919  -0.24661  -0.02954
  0-1A  ->  2-1A    5.706475   46025.8   217.3    0.11448   0.24837  -0.24304   0.60065
  0-1A  ->  3-1A    6.063551   48905.8   204.5    0.02758   0.15449  -0.18552  -0.13854
  0-1A  ->  4-1A    6.364048   51329.5   194.8    0.09677  -0.08237   0.08069  -0.19882
  0-1A  ->  5-1A    6.531059   52676.5   189.8   -0.06755   0.06396  -0.30995  -0.15193
  0-1A  ->  6-1A    7.005616   56504.1   177.0   -0.02694  -0.04959   0.02687   0.03169
  0-1A  ->  7-1A    7.018093   56604.7   176.7   -0.06763   0.18515   0.04689  -0.05822
  0-1A  ->  8-1A    7.135202   57549.3   173.8    0.14794  -0.05079   0.04917  -0.12199

------------------------------------------------------------------------------------------
                     CD SPECTRUM VIA TRANSITION VELOCITY DIPOLE MOMENTS    
------------------------------------------------------------------------------------------
     Transition      Energy     Energy  Wavelength    R        MX        MY        MZ   
                      (eV)      (cm-1)    (nm)   (1e40*cgs)   (au)      (au)      (au)  
------------------------------------------------------------------------------------------
  0-1A  ->  1-1A    4.853593   39146.9   255.4    0.04010  -0.16919  -0.24661  -0.02954
  0-1A  ->  2-1A    5.706475   46025.8   217.3   -0.05141   0.24837  -0.24304   0.60065
  0-1A  ->  3-1A    6.063551   48905.8   204.5   -0.00414   0.15449  -0.18552  -0.13854
  0-1A  ->  4-1A    6.364048   51329.5   194.8   -0.02305  -0.08237   0.08069  -0.19882
  0-1A  ->  5-1A    6.531059   52676.5   189.8   -0.01259   0.06396  -0.30995  -0.15193
  0-1A  ->  6-1A    7.005616   56504.1   177.0   -0.00911  -0.04959   0.02687   0.03169
  0-1A  ->  7-1A    7.018093   56604.7   176.7    0.01661   0.18515   0.04689  -0.05822
  0-1A  ->  8-1A    7.135202   57549.3   173.8    0.02368  -0.05079   0.04917  -0.12199

Total run time:        2.687 sec

           *** ORCA-CIS/TD-DFT FINISHED WITHOUT ERROR ***

Saving reference transition density.

-----------------------
CIS/TD-DFT TOTAL ENERGY
-----------------------

    E(SCF)  =   -414.071520997 Eh
    DE(CIS) =      0.178366258 Eh (Root  1)
    ----------------------------- ---------
    E(tot)  =   -413.893154739 Eh


Maximum memory used throughout the entire CIS-calculation: 32.4 MB
=> NOW LEAVING ORCA_CIS


-------------------------------------------------------------------------------
                          DFT DISPERSION CORRECTION                            
                                                                               
                                DFTD4 V3.4.0                                   
-------------------------------------------------------------------------------
The PBE0 functional is recognized
Active option DFTDOPT                   ...         5   

-------------------------   ----------------
Dispersion correction           -0.009750613
-------------------------   ----------------


-------------------------   --------------------
FINAL SINGLE POINT ENERGY      -413.902905352466
-------------------------   --------------------



           ************************************************************
           *        Program running with 16 parallel MPI-processes    *
           *              working on a common directory               *
           ************************************************************

------------------------------------------------------------------------------
                              ORCA PROPERTY CALCULATIONS
------------------------------------------------------------------------------

GBWName                                 ... /dev/shm/3470117/uracil_s0_vee.inp-3470117/uracil_s0_vee.gbw
Number of atoms                         ...     12
Number of basis functions               ...    132
Max core memory                         ...   2000 MB

Electric properties:
Dipole moment                           ... YES
Quadrupole moment                       ...  NO
Static polarizability (Dipole/Dipole)   ...  NO
Static polarizability (Dipole/Quad.)    ...  NO
Static polarizability (Quad./Quad.)     ...  NO
Static polarizability (Velocity)        ...  NO

Atomic electric properties:
Dipole moment                           ...  NO
Quadrupole moment                       ...  NO
Static polarizability                   ...  NO

Choice of electric origin               ... Center of mass
Position of electric origin             ...     1.174538    -0.429507     0.170705

General magnetic properties:
Magnetizability                         ...  NO

EPR properties:
g-Tensor (aka g-matrix)                 ...  NO
Zero-Field splitting spin-orbit         ...  NO
Zero-field splitting spin-spin          ...  NO
Hyperfine couplings                     ...  NO (   0 nuclei)
Quadrupole couplings                    ...  NO (   0 nuclei)
Contact density                         ...  NO (   0 nuclei)

NMR properties:
Chemical shifts                         ...  NO (   0 nuclei)
Spin-rotation constants                 ...  NO (   0 nuclei)
Spin-spin couplings                     ...  NO (   0 nuclei,    0 pairs)

Choice of magnetic origin               ... GIAO
Position of magnetic origin             ...     0.000000     0.000000     0.000000

Properties with geometric perturbations:
SCF Hessian                             ...  NO
IR spectrum                             ...  NO
VCD spectrum                            ...  NO
X-ray spectroscopy properties:
SCF XES/XAS/RIXS spectra                ...  NO


-------------
DIPOLE MOMENT
-------------

Method             : SCF
Type of density    : Electron Density
Multiplicity       :   1
Irrep              :   0
Energy             :  -414.0715209968464023 Eh
Relativity type    : 
Basis              : AO
                                X                 Y                 Z
Electronic contribution:      2.097460422       0.168252272      -0.798838378
Nuclear contribution   :     -3.464089905      -1.106846415       0.985092744
                        -----------------------------------------
Total Dipole Moment    :     -1.366629483      -0.938594143       0.186254366
                        -----------------------------------------
Magnitude (a.u.)       :      1.668330243
Magnitude (Debye)      :      4.240558475



--------------------
Rotational spectrum 
--------------------
 
Rotational constants in cm-1:             0.130127             0.067574             0.044477 
Rotational constants in MHz :          3901.109384          2025.805023          1333.389791 

Dipole components along the rotational axes: 
x,y,z [a.u.] :    -0.552517    -1.574182     0.000306 
x,y,z [Debye]:    -1.404388    -4.001254     0.000779 

 

Dipole moment calculation done in   0.0 sec 

Maximum memory used throughout the entire PROP-calculation: 6.4 MB

--------------------------------
SUGGESTED CITATIONS FOR THIS RUN
--------------------------------

Below you find a list of papers that are relevant to this ORCA run
We neither can nor want to force you to cite these papers, but we appreciate if you do
You receive ORCA, which is the product of decades of hard work by many enthusiastic individuals, for free
The only thing we kindly ask in return is that you cite our papers,
We deeply appreciate it, if you show your appreciation for ORCA by not just citing the generic ORCA reference.

Please note that relegating all ORCA citations to the supporting information does *not* help us.
SI sections are not indexed - citations you put there will not count into any citation statistics
But we need these citations in order to attract the funding resources that allow us to do what we are doing

Therefore, if you are a happy ORCA user, please consider citing a few of the papers listed below in the main body of your paper

In addition to the list printed below, the program has created the file /dev/shm/3470117/uracil_s0_vee.inp-3470117/uracil_s0_vee.bibtex that contains the list in bibtex format
You can import this file easily into all common literature databanks and citation aid programs


List of essential papers. We consider these as the minimum necessary citations

  1. Neese,F.
     Software update: the ORCA program system, version 5.0
     WIRES Comput. Molec. Sci., 2022 12(1)e1606
     doi.org/10.1002/wcms.1606

List of papers to cite with high priority. The work reported in these papers was absolutely
necessary for this run to complete.
Our perspective: the developers of density functionals and basis sets usually get cited in chemistry papers
Good! But without the algorithms to do something with them, the functionals or basis sets would not do anything.
Hence, in our opinion, the algorithm design and method developments papers are equally worthy of getting cited

  1. Neese,F.; Olbrich,G.
     Efficient use of the resolution of the identity approximation in time-dependent density functional calculations with hybrid density functionals
     Chem. Phys. Lett., 2002 362 170-178
     doi.org/10.1016/s0009-2614(02)01053-9
  2. Neese,F.
     An improvement of the resolution of the identity approximation for the formation of the Coulomb matrix
     J. Comp. Chem., 2003 24(14)1740-1747
     doi.org/10.1002/jcc.10318
  3. Neese,F.; Wennmohs,F.; Hansen,A.; Becker,U.
     Efficient, approximate and parallel Hartree-Fock and hybrid DFT calculations. A 'chain-of-spheres' algorithm for the Hartree-Fock exchange
     Chem. Phys., 2009 356(1-3)98-109
     doi.org/10.1016/j.chemphys.2008.10.036
  4. Helmich-Paris,B.; de Souza,B.; Neese,F.; Izsák,R.
     An improved chain of spheres for exchange algorithm
     J. Chem. Phys., 2021 155 104109
     doi.org/doi: 10.1063/5.0058766.
  5. Neese,F.
     The SHARK Integral Generation and Digestion System
     J. Comp. Chem., 2022  1-16
     doi.org/10.1002/jcc.26942
  6. Caldeweyher,E.; Bannwarth,C.; Grimme,S.
     Extension of the D3 dispersion coefficient model
     J. Chem. Phys., 2017 147 034112
     doi.org/10.1063/1.4993215
  7. Caldeweyher,E.; Ehlert,S.; Hansen,A.; Neugebauer,H.; Spicher,S.; Bannwarth,C.; Grimme,S.
     A generally applicable atomic-charge dependent London dispersion correction
     J. Chem. Phys., 2019 150 154122
     doi.org/10.1063/1.5090222
  8. Caldeweyher,E.; Mewes,J.; Ehlert,S.; Grimme,S.
     Extension and evaluation of the D4 London-dispersion model for periodic systems
     Phys. Chem. Chem. Phys., 2020 22(16)8499-8512
     doi.org/10.1039/D0CP00502A
  9. Wittmann,L.; Gordiy,I.; Friede,M.; Helmich-Paris,B.; Grimme,S.; Hansen,A.; Bursch,M.
     Extension of the D3 and D4 London Dispersion Corrections to the full Actinides Series
     Phys. Chem. Chem. Phys., 2024 26(32)21379-21394
     doi.org/https://doi.org/10.1039/D4CP01514B 

List of suggested additional citations. These are papers that are important in the 'surrounding' of 
of this run, or papers that preceded the highly important papers. If you like your results we are grateful for a citation.

  1. Izsak,R.; Neese,F.
     An overlap fitted chain of spheres exchange method
     J. Chem. Phys., 2011 135 144105
     doi.org/10.1063/1.3646921
  2. Izsak,R.; Hansen,A.; Neese,F.
     The resolution of identity and chain of spheres approximations for the LPNO-CCSD singles Fock term
     Molec. Phys., 2012 110 2413-2417
     doi.org/10.1080/00268976.2012.687466
  3. Neese,F.
     The ORCA program system
     WIRES Comput. Molec. Sci., 2012 2(1)73-78
     doi.org/10.1002/wcms.81
  4. Izsak,R.; Neese,F.; Klopper,W.
     Robust fitting techniques in the chain of spheres approximation to the Fock exchange: The role of the complementary space
     J. Chem. Phys., 2013 139 
     doi.org/10.1063/1.4819264
  5. Neese,F.
     Software update: the ORCA program system, version 4.0
     WIRES Comput. Molec. Sci., 2018 8(1)1-6
     doi.org/10.1002/wcms.1327
  6. Neese,F.; Wennmohs,F.; Becker,U.; Riplinger,C.
     The ORCA quantum chemistry program package
     J. Chem. Phys., 2020 152 Art. No. L224108
     doi.org/10.1063/5.0004608

List of optional additional citations

  1. Neese,F.
     Approximate second-order SCF convergence for spin unrestricted wavefunctions
     Chem. Phys. Lett., 2000 325(1-3)93-98
     doi.org/10.1016/s0009-2614(00)00662-x

Timings for individual modules:

Sum of individual times          ...       10.458 sec (=   0.174 min)
Startup calculation              ...        2.265 sec (=   0.038 min)  21.7 %
SCF iterations                   ...        4.773 sec (=   0.080 min)  45.6 %
Property integrals               ...        0.273 sec (=   0.005 min)   2.6 %
Property calculations            ...        0.264 sec (=   0.004 min)   2.5 %
CIS module                       ...        2.884 sec (=   0.048 min)  27.6 %
                             ****ORCA TERMINATED NORMALLY****
TOTAL RUN TIME: 0 days 0 hours 0 minutes 10 seconds 827 msec
