[Molden Format]
[Atoms] Angs
 c       1                    6  6.895000000000e-01  0.000000000000e+00 -1.000000000000e-03
 c       2                    6 -6.569000000000e-01 -0.000000000000e+00 -1.900000000000e-03
 h       3                    1  1.250100000000e+00  9.257000000000e-01  1.693000000000e-01
 h       4                    1  1.250500000000e+00 -9.256000000000e-01 -1.706000000000e-01
 h       5                    1 -1.244300000000e+00 -9.211000000000e-01  1.527000000000e-01
 h       6                    1 -1.243900000000e+00  9.211000000000e-01 -1.573000000000e-01
[GTO]
1
 s           5
      1.238401693800e+03      5.517365048110e-03
      1.862900499200e+02      4.108882855595e-02
      4.225117634600e+01      1.822538212649e-01
      1.167655793200e+01      4.682845943743e-01
      3.593050648200e+00      4.457581733600e-01
 s           1
      4.024514736300e-01      1.000000000000e+00
 s           1
      1.309018266800e-01      1.000000000000e+00
 p           3
      9.468097062100e+00      5.688833201104e-02
      2.010354514200e+00      3.129405933647e-01
      5.477100470700e-01      7.606501650914e-01
 p           1
      1.526861379500e-01      1.000000000000e+00
 d           1
      8.000000000000e-01      1.000000000000e+00

2
 s           5
      1.238401693800e+03      5.517365048110e-03
      1.862900499200e+02      4.108882855595e-02
      4.225117634600e+01      1.822538212649e-01
      1.167655793200e+01      4.682845943743e-01
      3.593050648200e+00      4.457581733600e-01
 s           1
      4.024514736300e-01      1.000000000000e+00
 s           1
      1.309018266800e-01      1.000000000000e+00
 p           3
      9.468097062100e+00      5.688833201104e-02
      2.010354514200e+00      3.129405933647e-01
      5.477100470700e-01      7.606501650914e-01
 p           1
      1.526861379500e-01      1.000000000000e+00
 d           1
      8.000000000000e-01      1.000000000000e+00

3
 s           3
      1.301070100000e+01      3.348548481299e-02
      1.962257200000e+00      2.347218708812e-01
      4.445379600000e-01      8.137702852596e-01
 s           1
      1.219496200000e-01      1.000000000000e+00
 p           1
      8.000000000000e-01      1.000000000000e+00

4
 s           3
      1.301070100000e+01      3.348548481299e-02
      1.962257200000e+00      2.347218708812e-01
      4.445379600000e-01      8.137702852596e-01
 s           1
      1.219496200000e-01      1.000000000000e+00
 p           1
      8.000000000000e-01      1.000000000000e+00

5
 s           3
      1.301070100000e+01      3.348548481299e-02
      1.962257200000e+00      2.347218708812e-01
      4.445379600000e-01      8.137702852596e-01
 s           1
      1.219496200000e-01      1.000000000000e+00
 p           1
      8.000000000000e-01      1.000000000000e+00

6
 s           3
      1.301070100000e+01      3.348548481299e-02
      1.962257200000e+00      2.347218708812e-01
      4.445379600000e-01      8.137702852596e-01
 s           1
      1.219496200000e-01      1.000000000000e+00
 p           1
      8.000000000000e-01      1.000000000000e+00


[5D]
[7F]
[9G]
[MO]
 Ene=  -11.249766
 Spin=  Alpha
 Occup=    2.000000
   1    -0.4650652856389632
   2    -0.0141250764148139
   3     0.0044192265342957
   4    -0.0013489481124649
   5    -0.0000000302383603
   6    -0.0000008530387978
   7     0.0011379228857167
   8     0.0000003990263946
   9     0.0000007472377384
  10     0.0002287803918266
  11    -0.0000001934198666
  12    -0.0001798472424760
  13     0.0000469482164014
  14     0.0000001882122798
  15    -0.8750602950926718
  16    -0.0299104519423622
  17     0.0172158539483738
  18     0.0009106984719095
  19    -0.0000001671257358
  20     0.0000006281816859
  21     0.0000627367193510
  22     0.0000005068931025
  23    -0.0000000538722431
  24     0.0011723176174702
  25    -0.0000014321723415
  26     0.0003847497201318
  27    -0.0001323944318032
  28    -0.0000003507228255
  29     0.0008493626313215
  30    -0.0020985998542117
  31     0.0001341759706265
  32    -0.0004015878245271
  33    -0.0000747534874465
  34     0.0008496757662768
  35    -0.0020982834974697
  36     0.0001339257058049
  37     0.0004016900317902
  38     0.0000749812028700
  39     0.0019140731235852
  40    -0.0042257623301080
  41     0.0003535006278610
  42     0.0010461555536722
  43    -0.0001798748741326
  44     0.0019141617638467
  45    -0.0042268657909838
  46     0.0003528193383165
  47    -0.0010457924966973
  48     0.0001803161062289
 Ene=  -11.248061
 Spin=  Alpha
 Occup=    2.000000
   1     0.8749416731840419
   2     0.0326735734950765
   3    -0.0247620546647031
   4    -0.0004413106938060
   5     0.0000001716998109
   6    -0.0000003915319673
   7     0.0017646748782945
   8     0.0000001651480395
   9     0.0000013334023156
  10    -0.0017217731097865
  11     0.0000019964603132
  12     0.0004929421730426
  13     0.0001432047037499
  14    -0.0000005967056873
  15    -0.4648714395745175
  16    -0.0190643585478327
  17     0.0180760777877984
  18    -0.0010794888756258
  19    -0.0000002709591244
  20    -0.0000006897067538
  21     0.0019999631049350
  22    -0.0000002438578730
  23     0.0000012811265681
  24     0.0012840977503214
  25    -0.0000016622436761
  26     0.0002518986802487
  27    -0.0002201510081347
  28    -0.0000002830578936
  29    -0.0021945820926199
  30     0.0047314430880048
  31     0.0008061524253516
  32     0.0011981175433397
  33     0.0002253548737607
  34    -0.0021945295002093
  35     0.0047315844701101
  36     0.0008066184523090
  37    -0.0011981184448813
  38    -0.0002243967489091
  39     0.0012738593392885
  40    -0.0027678764741031
  41     0.0007304240846106
  42     0.0007514484288315
  43    -0.0001291740233221
  44     0.0012743910570279
  45    -0.0027681137408149
  46     0.0007301867976173
  47    -0.0007513968811003
  48     0.0001301667992317
 Ene=   -1.021149
 Spin=  Alpha
 Occup=    2.000000
   1    -0.2006413530809837
   2     0.3866217568139754
   3     0.1146030215773142
   4    -0.1226417115115053
   5     0.0000088002237460
   6    -0.0000834463046110
   7    -0.0210888733826738
   8     0.0000042089291138
   9    -0.0000151948994365
  10    -0.0111959734958994
  11     0.0000223774502118
  12     0.0010301566434420
  13     0.0140102328816371
  14    -0.0000013823970381
  15    -0.1991330126523977
  16     0.3848823666135993
  17     0.1171137837236966
  18     0.1235393118641613
  19     0.0000142480456392
  20     0.0000803887607608
  21     0.0232187963146976
  22    -0.0000034821023411
  23     0.0000169168730096
  24    -0.0113149074246443
  25     0.0000226074073804
  26    -0.0009303594024143
  27     0.0142720865608186
  28     0.0000009500445628
  29     0.1061611655530182
  30     0.0105931874551883
  31    -0.0093801092050659
  32    -0.0128027212774488
  33    -0.0023267055423593
  34     0.1061463324418063
  35     0.0105942810552146
  36    -0.0093836006289218
  37     0.0127994485932751
  38     0.0023143366988127
  39     0.1026867123116167
  40     0.0106477091321628
  41     0.0092401379624149
  42     0.0121501262074474
  43    -0.0020023615700744
  44     0.1027216770343125
  45     0.0106535641371681
  46     0.0092397806690734
  47    -0.0121549511610133
  48     0.0020158529060279
 Ene=   -0.782147
 Spin=  Alpha
 Occup=    2.000000
   1     0.1521592295175279
   2    -0.3045891447218921
   3    -0.1371254806518542
   4    -0.1561724508177535
   5     0.0000060541570225
   6    -0.0001067437230691
   7    -0.0578283681633279
   8     0.0000111255498968
   9    -0.0000427424694674
  10     0.0035101179780211
  11     0.0000045719361698
  12    -0.0036663434785447
  13     0.0108456600116533
  14     0.0000025428512445
  15    -0.1539121542500453
  16     0.3087426896192111
  17     0.1396922345672339
  18    -0.1598694402941273
  19     0.0000303709001357
  20    -0.0001177708233695
  21    -0.0584110312784079
  22    -0.0000035694407268
  23    -0.0000423788200635
  24    -0.0037210088127699
  25    -0.0000028172318987
  26    -0.0033667366290843
  27    -0.0104106860929912
  28     0.0000014174938587
  29    -0.1902789406524072
  30    -0.0359325071990125
  31     0.0069799324674614
  32     0.0168907091044340
  33     0.0031971663579446
  34    -0.1902976583049949
  35    -0.0359314194015612
  36     0.0069887886123383
  37    -0.0168905927931914
  38    -0.0031892016788097
  39     0.1928982897924986
  40     0.0369227226721099
  41     0.0074864467461247
  42     0.0169953362717844
  43    -0.0029595646090516
  44     0.1929396669736051
  45     0.0369318224093035
  46     0.0074814823239139
  47    -0.0169985286366047
  48     0.0029702130560610
 Ene=   -0.635140
 Spin=  Alpha
 Occup=    2.000000
   1     0.0000036694654074
   2    -0.0000094069823863
   3    -0.0000104818688768
   4     0.0000002583469833
   5     0.3224702778098587
   6     0.0287967269647361
   7     0.0000070614831307
   8     0.1335812356497277
   9    -0.0034729253935861
  10     0.0000024147020652
  11     0.0028246068806011
  12     0.0000005926946424
  13    -0.0000071342154428
  14     0.0011909647353854
  15     0.0000184708472353
  16    -0.0000427169115148
  17    -0.0000330603076731
  18     0.0000047333051475
  19     0.3057640000006582
  20    -0.0168710494812532
  21     0.0000013687042583
  22     0.1325656269612695
  23     0.0085749455917690
  24     0.0000034406766245
  25     0.0030704447881115
  26    -0.0000004987425991
  27    -0.0000061982558440
  28    -0.0000103158321938
  29     0.2117134022629933
  30     0.0528038007915297
  31    -0.0102282917505894
  32    -0.0094953790257838
  33    -0.0029496284536332
  34    -0.2116757213601536
  35    -0.0527884215073809
  36     0.0102334656605739
  37    -0.0094917140667971
  38    -0.0029361344693302
  39    -0.1957146080575964
  40    -0.0472410760715532
  41    -0.0098293580759885
  42    -0.0086208232147175
  43     0.0027023784151862
  44     0.1957105513956418
  45     0.0472402139458048
  46     0.0098234369005992
  47    -0.0086204671926269
  48     0.0027160405637743
 Ene=   -0.590122
 Spin=  Alpha
 Occup=    2.000000
   1     0.0088750168951888
   2    -0.0295005104911802
   3     0.0349684039505483
   4     0.4067251843209045
   5    -0.0000179077420956
   6     0.0002484891240301
   7     0.1445091159688398
   8    -0.0000026888073932
   9     0.0000836565267820
  10     0.0003354721274236
  11    -0.0000143486624945
  12     0.0032506623401207
  13    -0.0206708616651796
  14    -0.0000064113162540
  15     0.0126848479487378
  16    -0.0373150729393474
  17     0.0306673428295846
  18    -0.4048764928095778
  19     0.0000305166803666
  20    -0.0002883374562669
  21    -0.1434882123193731
  22     0.0000033457441866
  23    -0.0001036117403119
  24     0.0001312540379536
  25    -0.0000143262926159
  26    -0.0027897231280017
  27    -0.0197638105594415
  28     0.0000005246982986
  29     0.1704990436843940
  30     0.0568800303540912
  31     0.0010056434244573
  32    -0.0117869736295113
  33    -0.0023170124139528
  34     0.1705723029974275
  35     0.0569043955296003
  36     0.0009964829533816
  37     0.0117904802379702
  38     0.0023188225850708
  39     0.1689338920529311
  40     0.0563266470876829
  41    -0.0004871771396924
  42     0.0117373091996757
  43    -0.0021369836948884
  44     0.1689532490737299
  45     0.0563336656787513
  46    -0.0004931013351676
  47    -0.0117365571465461
  48     0.0021359325240211
 Ene=   -0.504823
 Spin=  Alpha
 Occup=    2.000000
   1    -0.0000005779692654
   2     0.0000012532109592
   3     0.0000124004543779
   4     0.0001237346419508
   5    -0.2248495213165416
   6    -0.2212637796849724
   7     0.0000787267892853
   8    -0.0906323919172271
   9    -0.1437628122179261
  10     0.0000124262057654
  11     0.0107328414532837
  12    -0.0000150122367708
  13    -0.0000017895298025
  14    -0.0218444431348920
  15     0.0000009070683688
  16    -0.0000024441921653
  17    -0.0000348346641050
  18     0.0001921360480103
  19     0.2451155945359340
  20    -0.2183149781309316
  21     0.0001117692875707
  22     0.1034899640820249
  23    -0.1416820812091540
  24    -0.0000121957154848
  25    -0.0108207312424325
  26    -0.0000158428375978
  27     0.0000054473026186
  28    -0.0220668230873263
  29    -0.2149397819386329
  30    -0.0898153616557572
  31     0.0085935042508384
  32     0.0087262076433302
  33    -0.0031626554911861
  34     0.2149062347444275
  35     0.0897998631378684
  36    -0.0085916566695696
  37     0.0087225155543007
  38    -0.0031735900135674
  39    -0.2260196946977508
  40    -0.0944367733796715
  41    -0.0095310562048170
  42    -0.0087880667064061
  43    -0.0030734479155644
  44     0.2259924412868271
  45     0.0944195145029626
  46     0.0095334185058959
  47    -0.0087865168533897
  48    -0.0030615169319631
 Ene=    0.000000
 Spin=  Alpha
 Occup=    1.479144
   1    -0.0000010587440313
   2     0.0000010941591842
   3     0.0000015697882372
   4     0.0001981846539909
   5     0.1832436935372937
   6    -0.3064248314424978
   7     0.0001778855749629
   8     0.1002018037185304
   9    -0.2664260393694634
  10     0.0000343949591596
  11     0.0294224348014280
  12     0.0000099786042013
  13    -0.0000225084118753
  14     0.0163327524823943
  15     0.0000042091636067
  16    -0.0000077995652817
  17     0.0000004714423412
  18     0.0002072728668078
  19    -0.1826118536825569
  20    -0.3100108481704112
  21     0.0001810451384711
  22    -0.0995977343823397
  23    -0.2702498525119854
  24    -0.0000337235491117
  25    -0.0290507991800454
  26     0.0000109755323696
  27     0.0000220000691995
  28     0.0171553804555340
  29     0.1350107672160725
  30     0.0799141109487979
  31    -0.0031922939973339
  32    -0.0025149416658643
  33    -0.0105417673903389
  34    -0.1349975694666032
  35    -0.0799180815641101
  36     0.0032068852693910
  37    -0.0025125690566899
  38    -0.0105366799221338
  39     0.1388837992216701
  40     0.0826185052373671
  41     0.0036930251683157
  42     0.0026521111035069
  43    -0.0103679269478005
  44    -0.1388856012199158
  45    -0.0826069930450051
  46    -0.0036770919987706
  47     0.0026521076224442
  48    -0.0103748081600773
 Ene=    0.000000
 Spin=  Alpha
 Occup=    0.520856
   1    -0.0000072986080738
   2     0.0000135589955300
   3     0.0000894072028208
   4    -0.0002122490961861
   5    -0.0651790882653014
   6     0.3547598911946029
   7    -0.0003726524578398
   8    -0.2049273020264534
   9     0.6378199590947699
  10     0.0000264927364560
  11     0.0224185727320972
  12     0.0000176059773822
  13    -0.0000164893848032
  14     0.0251983699188236
  15    -0.0000036695982799
  16     0.0000072019696569
  17     0.0000668285668475
  18     0.0002148232501711
  19    -0.0614903886228681
  20    -0.3548714823163862
  21     0.0003975422461595
  22    -0.2040210274536238
  23    -0.6405853250492297
  24     0.0000270620979524
  25     0.0225349268466834
  26    -0.0000187577935098
  27    -0.0000166221653484
  28    -0.0255948051829184
  29     0.0843228598833811
  30     0.1464335701280236
  31     0.0046159240484507
  32    -0.0062759747676473
  33     0.0171062379546958
  34    -0.0843443395612909
  35    -0.1465398690335255
  36    -0.0046349631863443
  37    -0.0062755110214885
  38     0.0171008785454418
  39    -0.0865021785572953
  40    -0.1518789576744742
  41     0.0040190341814024
  42    -0.0060673555817169
  43    -0.0172713087087302
  44     0.0864942995477779
  45     0.1517857738004358
  46    -0.0039997796615775
  47    -0.0060673847756601
  48    -0.0172771089097248
 Ene=    0.202605
 Spin=  Alpha
 Occup=    0.000000
   1    -0.0725934241098456
   2     0.1208264304214805
   3     1.5601378458767330
   4     0.1309312621233047
   5     0.0000322530670178
   6     0.0000680367610982
   7     0.5360330558672046
   8     0.0001335032783679
   9     0.0003130471588778
  10    -0.0027701553949395
  11     0.0000044770281159
  12     0.0024713161427626
  13     0.0040589063749982
  14    -0.0000010109978523
  15    -0.0762745506695697
  16     0.1268283080672941
  17     1.5621075382144960
  18    -0.1331371581884701
  19     0.0000101965696723
  20    -0.0000745218689339
  21    -0.5845440644421216
  22     0.0000968672069190
  23    -0.0003751840096515
  24    -0.0029330093577390
  25     0.0000049330343084
  26    -0.0025266088661893
  27     0.0037557203198320
  28     0.0000014875016002
  29    -0.0050960548082348
  30    -1.0915647452440640
  31     0.0052877895218557
  32     0.0012842593048361
  33     0.0019218901940813
  34    -0.0050919046724977
  35    -1.0913859187591579
  36     0.0052897517999540
  37    -0.0012829469350478
  38    -0.0019161576475676
  39    -0.0043004949600104
  40    -1.1245411532332041
  41    -0.0048029221809006
  42    -0.0017702187349364
  43     0.0019460824323210
  44    -0.0043062752968269
  45    -1.1247662661287350
  46    -0.0048013483278319
  47     0.0017716241104387
  48    -0.0019515259277549
 Ene=    0.230352
 Spin=  Alpha
 Occup=    0.000000
   1     0.0001039411494932
   2    -0.0001322572982023
   3    -0.0023500696545873
   4    -0.0000066373349928
   5    -0.2066468924199993
   6    -0.0821997542677146
   7     0.0001058834430779
   8    -0.7378153950504091
   9    -0.3376454607760243
  10     0.0000003257749574
  11    -0.0042597587127932
  12     0.0000087368116798
  13     0.0000102135835047
  14     0.0117916895471178
  15    -0.0001102640469766
  16     0.0001459860003041
  17     0.0024347151791879
  18    -0.0001770761869879
  19    -0.2114100221290059
  20     0.0783770414373719
  21    -0.0005377702986176
  22    -0.7136728415359418
  23     0.3202774421344408
  24    -0.0000064131807365
  25    -0.0043898983602609
  26    -0.0000051243582423
  27    -0.0000049563476466
  28    -0.0113608523609785
  29     0.0231994709584981
  30     1.1570446729979567
  31    -0.0027582986989906
  32    -0.0043411926915508
  33    -0.0035416124789977
  34    -0.0231756115647869
  35    -1.1544330975175987
  36     0.0027623185225667
  37    -0.0043308642156958
  38    -0.0035401814023986
  39    -0.0225781258111250
  40    -1.1232870725963788
  41    -0.0026345582803883
  42    -0.0039833993599467
  43     0.0034014821965450
  44     0.0225234116340704
  45     1.1205392098170295
  46     0.0026320257966701
  47    -0.0039736417339182
  48     0.0034072007334106
 Ene=    0.233509
 Spin=  Alpha
 Occup=    0.000000
   1     0.0960479162468262
   2    -0.1251395760680149
   3    -2.2251848761549051
   4    -0.0809952236230868
   5     0.0002549166611232
   6     0.0000426875939261
   7    -0.2056985772388091
   8     0.0009860789086070
   9     0.0002816450451408
  10     0.0034207912591893
  11     0.0000058221610736
  12     0.0009592717690371
  13     0.0071260640761257
  14    -0.0000088746537717
  15    -0.0923740484909711
  16     0.1171672370685758
  17     2.1637064653102720
  18    -0.0812437718867346
  19     0.0002021310563754
  20    -0.0001381734092114
  21    -0.2042713057583224
  22     0.0006549078154130
  23    -0.0005075173602841
  24    -0.0032132351887994
  25     0.0000037726145793
  26     0.0012959794997389
  27    -0.0077984461221068
  28     0.0000136829478906
  29     0.0116273397273288
  30     1.2453106407242611
  31    -0.0001681034831961
  32    -0.0048523213925017
  33     0.0009236888755245
  34     0.0116648229837685
  35     1.2482520247524365
  36    -0.0001786216309125
  37     0.0048634513961939
  38    -0.0009161533247426
  39    -0.0122596804619028
  40    -1.2027623691352540
  41     0.0004948106629755
  42    -0.0052452457581428
  43    -0.0010230234335738
  44    -0.0122991745137609
  45    -1.2050836620120118
  46     0.0004897308113427
  47     0.0052533245614398
  48     0.0010166808010995
 Ene=    0.297775
 Spin=  Alpha
 Occup=    0.000000
   1    -0.0000086703778456
   2    -0.0000007422942427
   3     0.0006981564732117
   4    -0.0000271102580242
   5     0.1913918416590527
   6     0.0475473223606437
   7    -0.0003548178576004
   8     1.5447065078884141
   9     0.1578367047925359
  10    -0.0000033891440805
  11    -0.0009762679839144
  12     0.0000120594060714
  13    -0.0000032203429084
  14     0.0195328516766513
  15     0.0000107884085230
  16    -0.0000114070453012
  17    -0.0008870302887941
  18    -0.0000276872738497
  19    -0.1952044120785998
  20     0.0495036178217726
  21    -0.0002971851675476
  22    -1.5286723128621680
  23     0.1434305533078839
  24     0.0000057200375461
  25     0.0009637085574254
  26     0.0000134597661761
  27     0.0000050605342702
  28     0.0179492840757581
  29     0.0276829691219077
  30    -1.5917446321826665
  31     0.0126516748371964
  32     0.0085871795565759
  33     0.0016303867186514
  34    -0.0276863792850151
  35     1.5913480141420715
  36    -0.0126528046009076
  37     0.0085842680054882
  38     0.0016154031684102
  39     0.0230836186236162
  40    -1.5810816097100722
  41    -0.0125038286953835
  42    -0.0082187308613251
  43     0.0016602180665839
  44    -0.0231047920470220
  45     1.5817085472981027
  46     0.0125023442905818
  47    -0.0082232663871054
  48     0.0016771023765748
 Ene=    0.476370
 Spin=  Alpha
 Occup=    0.000000
   1     0.0608071761997345
   2    -0.0947217387960310
   3    -4.9670367498378063
   4     0.1588081592091674
   5     0.0000194885500638
   6     0.0001055095719734
   7     3.4368111211538217
   8     0.0000893866039617
   9     0.0022894170378576
  10     0.0041573738799447
  11     0.0000098432933607
  12    -0.0078420234791989
  13     0.0231960267146006
  14     0.0000055155972925
  15    -0.0609195132339330
  16     0.0874600444942526
  17     5.0019297828609126
  18     0.1644968420493635
  19    -0.0000178804557645
  20     0.0001125849522130
  21     3.4048312893030088
  22    -0.0001056656058302
  23     0.0022902430951863
  24    -0.0015289622006770
  25    -0.0000121561027524
  26    -0.0064272454100904
  27    -0.0205509522799331
  28     0.0000076221018814
  29    -0.1231204319390267
  30    -0.2233890915189072
  31     0.0066864954199160
  32    -0.0069784836777699
  33    -0.0020100064021633
  34    -0.1230578874686679
  35    -0.2234607783806107
  36     0.0066918069446636
  37     0.0069819072319426
  38     0.0020180613040879
  39     0.0942871851812929
  40     0.2342400492181161
  41     0.0069824769259347
  42    -0.0059855801022461
  43     0.0017711416368344
  44     0.0943145979047503
  45     0.2342849116831697
  46     0.0069774424103348
  47     0.0059823698459533
  48    -0.0017617622510638
 Ene=    0.564421
 Spin=  Alpha
 Occup=    0.000000
   1    -0.0909074514064188
   2     0.7735886925288036
   3    -0.5662535087785087
   4    -0.3889632151974710
   5    -0.0000595470961855
   6    -0.0002350810578291
   7     0.6886340369203885
   8     0.0001925391751124
   9     0.0005812421038277
  10    -0.0296712893753075
  11     0.0000602383426949
  12     0.0016600007324929
  13     0.0411617945424033
  14    -0.0000367211991544
  15    -0.0929504670210463
  16     0.8085122744885347
  17    -0.8257139602284412
  18     0.3773379981799622
  19    -0.0000475898837865
  20     0.0002316566397839
  21    -0.8006739315553827
  22     0.0001722346668091
  23    -0.0006529504825057
  24    -0.0313385000389673
  25     0.0000638430856454
  26    -0.0021594754961666
  27     0.0411979528859548
  28     0.0000358264730457
  29    -0.0594004380502308
  30     0.2060943845112131
  31     0.0321274164951358
  32    -0.0030586276994572
  33    -0.0011610769958575
  34    -0.0589299478224644
  35     0.2058170840230064
  36     0.0321746483138342
  37     0.0030630264310433
  38     0.0012128105192083
  39    -0.0343308067166407
  40     0.1818935581031239
  41    -0.0336421525066367
  42     0.0034949352012475
  43    -0.0013078711514877
  44    -0.0348182113456231
  45     0.1822192304110851
  46    -0.0335931485352094
  47    -0.0034857052839493
  48     0.0012537738305878
 Ene=    0.618919
 Spin=  Alpha
 Occup=    0.000000
   1    -0.0006924312339931
   2     0.0062699355984549
   3    -0.0206752194324171
   4     0.0014451084188225
   5    -0.0734839951450660
   6     0.0468175771816057
   7    -0.0061926718730545
   8     0.5063537707972041
   9     0.2952190455192338
  10    -0.0005320688063656
  11    -0.0025231798088290
  12     0.0000913589446941
  13    -0.0003459846563004
  14    -0.1003695405626355
  15    -0.0006914016599424
  16     0.0057197673121977
  17    -0.0126926892317764
  18    -0.0012532950325161
  19    -0.0690559446605534
  20    -0.0408772774812322
  21     0.0096981042931694
  22     0.5030223360215261
  23    -0.2890725628784482
  24    -0.0005126027492711
  25    -0.0014822044202775
  26    -0.0000436537545705
  27    -0.0003379422703382
  28     0.1036790088060701
  29    -0.5467151663627390
  30     0.1368628898379275
  31    -0.0524754968874838
  32     0.0018499460860851
  33     0.0102355555583031
  34     0.5563542122083864
  35    -0.1290140857020726
  36     0.0521049472092048
  37     0.0016076854340628
  38     0.0103166988800945
  39     0.5817724298806566
  40    -0.1830221334923573
  41    -0.0508505977460062
  42     0.0013936956737399
  43    -0.0101198971267809
  44    -0.5727152484145751
  45     0.1903934379952670
  46     0.0512385068845476
  47     0.0015997371016303
  48    -0.0100228724834851
 Ene=    0.619894
 Spin=  Alpha
 Occup=    0.000000
   1    -0.0757382221665293
   2     0.6836255968438297
   3    -2.1589140008279006
   4     0.1350879061136234
   5     0.0007170594610221
   6    -0.0003348841825808
   7    -0.5760451620080921
   8    -0.0049598517538789
   9    -0.0032550631817011
  10    -0.0565229492271045
  11     0.0000638391384218
  12     0.0160711455022147
  13    -0.0347948262019953
  14     0.0009598942008352
  15    -0.0769825056239241
  16     0.6368984245675167
  17    -1.3700231404807630
  18    -0.1171642863689135
  19     0.0006786765196216
  20     0.0003187299343934
  21     0.9491785449892398
  22    -0.0050655253207141
  23     0.0034648030681347
  24    -0.0542573988827111
  25     0.0000581133666009
  26    -0.0119859723311488
  27    -0.0337636156504588
  28    -0.0009942083551169
  29     0.4972711195622487
  30     0.4128850983997072
  31    -0.0154033674364913
  32     0.0121452659665084
  33    -0.0009296997813991
  34     0.4865405554459713
  35     0.4154857205486119
  36    -0.0164233873877333
  37    -0.0121816811871643
  38     0.0007135498833113
  39     0.4549887588442721
  40     0.4068605247625044
  41     0.0173142106685397
  42    -0.0105168217641333
  43    -0.0013044508040880
  44     0.4661990641862863
  45     0.4034939237299482
  46     0.0163067143615907
  47     0.0104944344693862
  48     0.0015212512500484
 Ene=    0.707903
 Spin=  Alpha
 Occup=    0.000000
   1    -0.0000010518013107
   2    -0.0000692895899593
   3     0.0005618312226271
   4    -0.0004701900067326
   5    -0.1385123543168764
   6     0.6935065275655344
   7     0.0002897121493280
   8     0.1742217409142497
   9    -0.6082734646643274
  10    -0.0000618996997670
  11    -0.0611624159724196
  12    -0.0000074874455914
  13     0.0000445769450500
  14    -0.0044653027733295
  15    -0.0000016710634128
  16     0.0000643857100653
  17    -0.0005031357823915
  18    -0.0004921564235956
  19     0.1268095979904185
  20     0.6964132857552338
  21     0.0002862692453733
  22    -0.1665047830860310
  23    -0.6079936494490183
  24     0.0000659704202551
  25     0.0610483941910745
  26    -0.0000078005940434
  27    -0.0000425806943317
  28    -0.0067995336263401
  29    -0.0229929045801880
  30     0.0679756915266664
  31     0.0068316336211135
  32    -0.0051926496101473
  33     0.0129018649067610
  34     0.0228181347735220
  35    -0.0680462291912345
  36    -0.0068426455803951
  37    -0.0051865418237305
  38     0.0128930679088824
  39    -0.0275918500143782
  40     0.0705763983899527
  41    -0.0062164238188826
  42     0.0049566936723305
  43     0.0122476596570721
  44     0.0277063250739950
  45    -0.0705397509296186
  46     0.0062016032525981
  47     0.0049650286997382
  48     0.0122668068274523
 Ene=    0.734292
 Spin=  Alpha
 Occup=    0.000000
   1     0.0105309908610772
   2    -0.5778953602594841
   3     4.0335353488931718
   4    -0.1664870190468593
   5    -0.0000558636637927
   6    -0.0002092090753091
   7    -0.8027628791083288
   8     0.0003044981800373
   9    -0.0004699430488400
  10     0.0614238326103545
  11    -0.0000455989329484
  12    -0.0369115593421601
  13     0.0154529720966110
  14     0.0000320278345911
  15    -0.0093725342814232
  16     0.5724605142339235
  17    -4.1421443643995097
  18    -0.1952634541889754
  19     0.0001106829765776
  20    -0.0002341189643106
  21    -0.6681123419518420
  22    -0.0004520613123297
  23    -0.0002768682260310
  24    -0.0652014661163424
  25     0.0000473600570358
  26    -0.0363376362901115
  27    -0.0206499502994003
  28     0.0000385879410869
  29    -0.5439881236590242
  30    -0.2704007834452267
  31     0.0080764529529123
  32    -0.0261769314336452
  33    -0.0085857507134388
  34    -0.5440151936565408
  35    -0.2700570267339066
  36     0.0080337307011092
  37     0.0261856566844095
  38     0.0085898445359438
  39     0.5922290129739790
  40     0.2981713391232974
  41     0.0133640825876410
  42    -0.0277354154331850
  43     0.0081141248579143
  44     0.5921478277650019
  45     0.2988502135240241
  46     0.0134016700044154
  47     0.0277286578495678
  48    -0.0080940448113373
 Ene=    0.803325
 Spin=  Alpha
 Occup=    0.000000
   1     0.0000072960904563
   2    -0.0000298918251145
   3     0.0000494192928538
   4     0.0004837614324482
   5     0.1672855290127657
   6    -0.7491285291241538
   7    -0.0007100176127195
   8    -0.1922101276893311
   9     1.0623692389962747
  10    -0.0000355494173297