[Molden Format]
[Atoms] Angs
 c       1                    6  6.895000000000e-01  0.000000000000e+00 -1.000000000000e-03
 c       2                    6 -6.569000000000e-01 -0.000000000000e+00 -1.900000000000e-03
 h       3                    1  1.250100000000e+00  9.257000000000e-01  1.693000000000e-01
 h       4                    1  1.250500000000e+00 -9.256000000000e-01 -1.706000000000e-01
 h       5                    1 -1.244300000000e+00 -9.211000000000e-01  1.527000000000e-01
 h       6                    1 -1.243900000000e+00  9.211000000000e-01 -1.573000000000e-01
[GTO]
1
 s           5
      1.238401693800e+03      5.517365048110e-03
      1.862900499200e+02      4.108882855595e-02
      4.225117634600e+01      1.822538212649e-01
      1.167655793200e+01      4.682845943743e-01
      3.593050648200e+00      4.457581733600e-01
 s           1
      4.024514736300e-01      1.000000000000e+00
 s           1
      1.309018266800e-01      1.000000000000e+00
 p           3
      9.468097062100e+00      5.688833201104e-02
      2.010354514200e+00      3.129405933647e-01
      5.477100470700e-01      7.606501650914e-01
 p           1
      1.526861379500e-01      1.000000000000e+00
 d           1
      8.000000000000e-01      1.000000000000e+00

2
 s           5
      1.238401693800e+03      5.517365048110e-03
      1.862900499200e+02      4.108882855595e-02
      4.225117634600e+01      1.822538212649e-01
      1.167655793200e+01      4.682845943743e-01
      3.593050648200e+00      4.457581733600e-01
 s           1
      4.024514736300e-01      1.000000000000e+00
 s           1
      1.309018266800e-01      1.000000000000e+00
 p           3
      9.468097062100e+00      5.688833201104e-02
      2.010354514200e+00      3.129405933647e-01
      5.477100470700e-01      7.606501650914e-01
 p           1
      1.526861379500e-01      1.000000000000e+00
 d           1
      8.000000000000e-01      1.000000000000e+00

3
 s           3
      1.301070100000e+01      3.348548481299e-02
      1.962257200000e+00      2.347218708812e-01
      4.445379600000e-01      8.137702852596e-01
 s           1
      1.219496200000e-01      1.000000000000e+00
 p           1
      8.000000000000e-01      1.000000000000e+00

4
 s           3
      1.301070100000e+01      3.348548481299e-02
      1.962257200000e+00      2.347218708812e-01
      4.445379600000e-01      8.137702852596e-01
 s           1
      1.219496200000e-01      1.000000000000e+00
 p           1
      8.000000000000e-01      1.000000000000e+00

5
 s           3
      1.301070100000e+01      3.348548481299e-02
      1.962257200000e+00      2.347218708812e-01
      4.445379600000e-01      8.137702852596e-01
 s           1
      1.219496200000e-01      1.000000000000e+00
 p           1
      8.000000000000e-01      1.000000000000e+00

6
 s           3
      1.301070100000e+01      3.348548481299e-02
      1.962257200000e+00      2.347218708812e-01
      4.445379600000e-01      8.137702852596e-01
 s           1
      1.219496200000e-01      1.000000000000e+00
 p           1
      8.000000000000e-01      1.000000000000e+00


[5D]
[7F]
[9G]
[MO]
 Ene=  -11.242429
 Spin=  Alpha
 Occup=    2.000000
   1     0.4199553027501380
   2     0.0124659908259332
   3    -0.0030979162364504
   4     0.0013973463667008
   5     0.0000000053669098
   6     0.0000009089549657
   7    -0.0012913149095854
   8    -0.0000003895283139
   9    -0.0000008734728656
  10    -0.0001288539808112
  11     0.0000000841467776
  12     0.0001449110039979
  13    -0.0000345531179451
  14    -0.0000001540503948
  15     0.8975661978952050
  16     0.0308455798267639
  17    -0.0181769372328402
  18    -0.0009751281314000
  19     0.0000001593547031
  20    -0.0000007049948491
  21    -0.0001073444096555
  22    -0.0000004821422388
  23     0.0000000453970450
  24    -0.0012349760040965
  25     0.0000014951769954
  26    -0.0003756249910023
  27     0.0001298466074571
  28     0.0000003494128861
  29    -0.0007409107233752
  30     0.0018518588305960
  31    -0.0001661759373612
  32     0.0003450059512041
  33     0.0000580985619290
  34    -0.0007412298117854
  35     0.0018515613889908
  36    -0.0001659554508629
  37    -0.0003451166474342
  38    -0.0000583657496026
  39    -0.0019773205524491
  40     0.0043771629145098
  41    -0.0004023797257841
  42    -0.0010978120041214
  43     0.0001750910850789
  44    -0.0019774384646164
  45     0.0043782598058382
  46    -0.0004016977556427
  47     0.0010974443378816
  48    -0.0001755936181938
 Ene=  -11.240481
 Spin=  Alpha
 Occup=    2.000000
   1     0.8974672265587047
   2     0.0333387724867352
   3    -0.0251130256111696
   4    -0.0002140887028055
   5     0.0000001457602191
   6    -0.0000002121649552
   7     0.0016951581555191
   8     0.0000001570480122
   9     0.0000012617399843
  10    -0.0017439751605795
  11     0.0000019818483881
  12     0.0004809617483593
  13     0.0000936546387660
  14    -0.0000005968769393
  15    -0.4197798901986378
  16    -0.0174931832022843
  17     0.0173328907310231
  18    -0.0010216188965268
  19    -0.0000002576702376
  20    -0.0000006452353550
  21     0.0020274215353791
  22    -0.0000002685828825
  23     0.0000013023087318
  24     0.0012403839950405
  25    -0.0000015770596874
  26     0.0002217285255835
  27    -0.0001646273538091
  28    -0.0000002577478263
  29    -0.0022358872410756
  30     0.0048582584536155
  31     0.0008076615962228
  32     0.0012363494246895
  33     0.0002184656075343
  34    -0.0022358692606708
  35     0.0048583911395090
  36     0.0008081391129772
  37    -0.0012363661284212
  38    -0.0002175150033247
  39     0.0011718420807099
  40    -0.0025712916810668
  41     0.0007131339055318
  42     0.0007081017490377
  43    -0.0001148988773174
  44     0.0011723617245049
  45    -0.0025714866535064
  46     0.0007129324135500
  47    -0.0007080696213970
  48     0.0001158670363230
 Ene=   -1.015416
 Spin=  Alpha
 Occup=    2.000000
   1    -0.2002071942424539
   2     0.3832678035095388
   3     0.1198823176504029
   4    -0.1178014664414456
   5     0.0000082749722194
   6    -0.0000795335439370
   7    -0.0204337274873235
   8     0.0000039692882902
   9    -0.0000139027674924
  10    -0.0098019445614023
  11     0.0000206271512312
  12     0.0008579942139448
  13     0.0138935901144258
  14    -0.0000010722737566
  15    -0.1987149390932573
  16     0.3816623692576240
  17     0.1218994756030580
  18     0.1187516754594976
  19     0.0000139101132410
  20     0.0000766679084112
  21     0.0224702764012970
  22    -0.0000038614882430
  23     0.0000155282817437
  24    -0.0099069535677264
  25     0.0000208729902286
  26    -0.0007705690132240
  27     0.0141608126588731
  28     0.0000006255393632
  29     0.1074175452769646
  30     0.0097474718661310
  31    -0.0091641945656095
  32    -0.0130609170466002
  33    -0.0025537295862727
  34     0.1074035062526153
  35     0.0097483863375292
  36    -0.0091683257294413
  37     0.0130576842633405
  38     0.0025418234309964
  39     0.1039713465094053
  40     0.0098840321837612
  41     0.0090569574949201
  42     0.0124041332493420
  43    -0.0022357567220231
  44     0.1040061215908810
  45     0.0098900560678494
  46     0.0090560137051398
  47    -0.0124089892022494
  48     0.0022489038297223
 Ene=   -0.778402
 Spin=  Alpha
 Occup=    2.000000
   1    -0.1515346535842509
   2     0.3037348019475152
   3     0.1169446774340487
   4     0.1569474331199085
   5    -0.0000032671847135
   6     0.0001014265727873
   7     0.0657118445252720
   8    -0.0000096435498854
   9     0.0000428036826758
  10    -0.0045147078351419
  11    -0.0000027527555319
  12     0.0030714415695532
  13    -0.0105917697462776
  14    -0.0000020497380133
  15     0.1532569348571468
  16    -0.3078627068771854
  17    -0.1193046629488584
  18     0.1606766024149792
  19    -0.0000343734404320
  20     0.0001129925350912
  21     0.0661373922139243
  22     0.0000025235936489
  23     0.0000437552554267
  24     0.0047202966058468
  25     0.0000010334086828
  26     0.0027511618117500
  27     0.0101724434794658
  28    -0.0000005506476950
  29     0.1915588111815062
  30     0.0379677238273404
  31    -0.0069621446688668
  32    -0.0168159571957790
  33    -0.0034996329275655
  34     0.1915747792308267
  35     0.0379641252839783
  36    -0.0069713101905303
  37     0.0168158972237017
  38     0.0034914174272908
  39    -0.1941651414635930
  40    -0.0390412597200306
  41    -0.0074843135814096
  42    -0.0169186990991876
  43     0.0032598979207549
  44    -0.1942126018643881
  45    -0.0390550600409866
  46    -0.0074789522857296
  47     0.0169219782543953
  48    -0.0032708162007380
 Ene=   -0.633507
 Spin=  Alpha
 Occup=    2.000000
   1    -0.0000026374149985
   2     0.0000067956371610
   3     0.0000081872297074
   4     0.0000076468011696
   5    -0.3194141427725436
   6    -0.0344904710053470
   7     0.0000007382530028
   8    -0.1235082819971851
   9    -0.0105527176048210
  10    -0.0000024523230212
  11    -0.0028789208347810
  12    -0.0000024648139621
  13     0.0000069287718520
  14    -0.0038114089009707
  15    -0.0000181431400366
  16     0.0000414665795511
  17     0.0000304913344108
  18    -0.0000149040525434
  19    -0.3023528075668782
  20     0.0247769612441998
  21    -0.0000124239139951
  22    -0.1218388323374414
  23     0.0071722447212017
  24    -0.0000034016912120
  25    -0.0030001539668601
  26     0.0000023452008147
  27     0.0000059153462722
  28     0.0025421000537372
  29    -0.2163389873785273
  30    -0.0618794970010181
  31     0.0096023024270580
  32     0.0098480981773570
  33     0.0023878014212137
  34     0.2163059315345429
  35     0.0618690913003445
  36    -0.0096070554258489
  37     0.0098445920820648
  38     0.0023754691426474
  39     0.2001814476944351
  40     0.0562379566574042
  41     0.0092765090991042
  42     0.0089731296246841
  43    -0.0020829103734398
  44    -0.2001714967635963
  45    -0.0562319899333579
  46    -0.0092710162143957
  47     0.0089723467452294
  48    -0.0020954583043496
 Ene=   -0.583783
 Spin=  Alpha
 Occup=    2.000000
   1     0.0107300270878745
   2    -0.0311004850687719
   3     0.0285180039574530
   4     0.4060440783884110
   5    -0.0000203571897094
   6     0.0002533211100998
   7     0.1471248199255480
   8    -0.0000050720965519
   9     0.0000908272320785
  10    -0.0011100786096992
  11    -0.0000123180102909
  12     0.0028310431122379
  13    -0.0201161237156853
  14    -0.0000070457982310
  15     0.0145191581294588
  16    -0.0389041610096379
  17     0.0252722615814433
  18    -0.4042336716428514
  19     0.0000416528407073
  20    -0.0002830665559973
  21    -0.1454972297658054
  22     0.0000093319335192
  23    -0.0001017594793465
  24    -0.0012851064846044
  25    -0.0000118082518430
  26    -0.0023562711377287
  27    -0.0192498596783099
  28    -0.0000003614712498
  29     0.1697792477664684
  30     0.0588649470701870
  31     0.0012625312736146
  32    -0.0116488274014577
  33    -0.0023359949089287
  34     0.1698590559072195
  35     0.0588934381137468
  36     0.0012535405137703
  37     0.0116525372971746
  38     0.0023386773138082
  39     0.1682125851606709
  40     0.0582656776652712
  41    -0.0007497987285642
  42     0.0116077198798552
  43    -0.0021493949417849
  44     0.1682474354693555
  45     0.0582793469516996
  46    -0.0007551433019306
  47    -0.0116073867893345
  48     0.0021484283625871
 Ene=   -0.510725
 Spin=  Alpha
 Occup=    2.000000
   1    -0.0000013407939924
   2     0.0000032116226627
   3     0.0000103264260948
   4     0.0000491022755219
   5    -0.2691747944255523
   6    -0.1141580971270045
   7     0.0000218845160687
   8    -0.1233001986765780
   9    -0.0585240226129011
  10     0.0000044428277654
  11     0.0039535165514474
  12    -0.0000177918615606
  13     0.0000035893529264
  14    -0.0263067285917457
  15    -0.0000000290488881
  16    -0.0000006470031385
  17    -0.0000316827379546
  18     0.0001268499015452
  19     0.2879248135409544
  20    -0.1112912102781562
  21     0.0000588951608126
  22     0.1342111894739690
  23    -0.0572911941719957
  24    -0.0000042532886616
  25    -0.0041468514714422
  26    -0.0000189366673745
  27     0.0000005994168797
  28    -0.0269387655192893
  29    -0.2438408939954687
  30    -0.1082796455638889
  31     0.0087503520796647
  32     0.0090723813647070
  33     0.0003974094730026
  34     0.2438012415912058
  35     0.1082622268894254
  36    -0.0087535376505625
  37     0.0090678784242276
  38     0.0003862788781539
  39    -0.2559041414593004
  40    -0.1143956500147191
  41    -0.0097318021657183
  42    -0.0092180205219291
  43     0.0003850504191157
  44     0.2558705452109797
  45     0.1143733774315977
  46     0.0097290008670802
  47    -0.0092159614200323
  48     0.0003975138265689
 Ene=   -0.364760
 Spin=  Alpha
 Occup=    2.000000
   1    -0.0000018347843678
   2     0.0000045686539244
   3     0.0000032669435607
   4    -0.0002344424753293
   5    -0.1079443292473331
   6     0.3649383082158048
   7    -0.0001923789324112
   8    -0.0745497423305271
   9     0.2942843127659722
  10    -0.0000321131680738
  11    -0.0277849803065550
  12    -0.0000050858632728
  13     0.0000197790798008
  14    -0.0085772227576338
  15    -0.0000014673082105
  16     0.0000025808019518
  17     0.0000032128073185
  18    -0.0002478732840520
  19     0.1027668232229914
  20     0.3659338261213023
  21    -0.0001993577090928
  22     0.0706296683905449
  23     0.2949651214206170
  24     0.0000317749912931
  25     0.0275812583340894
  26    -0.0000054103539331
  27    -0.0000197548815597
  28    -0.0092318247190429
  29    -0.0611499259308937
  30    -0.0449769721992294
  31     0.0005733849353029
  32    -0.0002941219185495
  33     0.0106399896216221
  34     0.0611453465199681
  35     0.0449788704129580
  36    -0.0005875002152579
  37    -0.0002951876173970
  38     0.0106386466654463
  39    -0.0625888961201521
  40    -0.0465545181805446
  41    -0.0007939216387181
  42     0.0001224052190318
  43     0.0103739746216333
  44     0.0625874796230146
  45     0.0465483467075190
  46     0.0007786221040334
  47     0.0001228816686595
  48     0.0103768191768681
 Ene=    0.153162
 Spin=  Alpha
 Occup=    0.000000
   1    -0.0000046102416825
   2     0.0000056091679991
   3     0.0000631262637857
   4    -0.0002065363350762
   5    -0.0765938510345757
   6     0.3340152391283975
   7    -0.0004175324717563
   8    -0.1687924909334684
   9     0.6919143280019111
  10     0.0000247423724946
  11     0.0211286742253447
  12     0.0000052707291361
  13    -0.0000146031255638
  14     0.0073303864634077
  15    -0.0000002019763925
  16    -0.0000015919827102
  17     0.0000341408033379
  18     0.0002122650850825
  19    -0.0734876889327617
  20    -0.3355821658805010
  21     0.0004467027040041
  22    -0.1648392634053218
  23    -0.6949047707476337
  24     0.0000249204734923
  25     0.0210886691695791
  26    -0.0000064233096155
  27    -0.0000145670189231
  28    -0.0075044165461839
  29     0.0432666936843272
  30     0.1455404418060326
  31     0.0018042988342131
  32    -0.0039610441788596
  33     0.0165409279502633
  34    -0.0432820806237257
  35    -0.1456112312471981
  36    -0.0018252748675040
  37    -0.0039618519576980
  38     0.0165402305213147
  39    -0.0437511360273015
  40    -0.1498981631642916
  41     0.0016076952391253
  42    -0.0037049673418514
  43    -0.0167184684164037
  44     0.0437504199698522
  45     0.1498576728515547
  46    -0.0015863295670956
  47    -0.0037051209956716
  48    -0.0167199403110324
 Ene=    0.205145
 Spin=  Alpha
 Occup=    0.000000
   1    -0.0721120681881640
   2     0.1172989061315060
   3     1.5651929206073159
   4     0.1327256785639611
   5     0.0000242209606570
   6     0.0000767594880092
   7     0.5350147423062241
   8     0.0001073832452232
   9     0.0003223401422599
  10    -0.0028009945973539
  11     0.0000052524282125
  12     0.0026120271553132
  13     0.0043232805750484
  14    -0.0000005248684148
  15    -0.0756958591246039
  16     0.1231283924760137
  17     1.5656967985153913
  18    -0.1349292718599354
  19     0.0000031221348461
  20    -0.0000838010665991
  21    -0.5827506134234648
  22     0.0000792854526676
  23    -0.0003852264985823
  24    -0.0029626124490980
  25     0.0000055946080328
  26    -0.0026903941465081
  27     0.0040381963201931
  28     0.0000009838646340
  29    -0.0046476732912026
  30    -1.0936472810125142
  31     0.0052799540778269
  32     0.0015609389374454
  33     0.0017750206490664
  34    -0.0046464761810570
  35    -1.0935399113630717
  36     0.0052819504296040
  37    -0.0015597544756923
  38    -0.0017685782882364
  39    -0.0037678420200530
  40    -1.1253340036509021
  41    -0.0048209065040083
  42    -0.0020593609812229
  43     0.0018046981036162
  44    -0.0037706925123402
  45    -1.1255050351559235
  46    -0.0048194523764934
  47     0.0020605356276559
  48    -0.0018109138848679
 Ene=    0.233651
 Spin=  Alpha
 Occup=    0.000000
   1     0.0001500725504852
   2    -0.0001916440318167
   3    -0.0034194795678459
   4    -0.0000528549096171
   5    -0.2076561436167591
   6    -0.0792382486781672
   7    -0.0000086687464549
   8    -0.7447793400655642
   9    -0.3328647396799093
  10     0.0000024668368991
  11    -0.0044177507781849
  12     0.0000074051828094
  13     0.0000128375309391
  14     0.0105349594773734
  15    -0.0001512463085668
  16     0.0001965808089049
  17     0.0034026764956163
  18    -0.0002134765146776
  19    -0.2120645705917239
  20     0.0754288859117809
  21    -0.0006215316494161
  22    -0.7182253786017613
  23     0.3154656126430457
  24    -0.0000088886095139
  25    -0.0045592632089731
  26    -0.0000045408939011
  27    -0.0000075992182805
  28    -0.0101337871647582
  29     0.0211328583297457
  30     1.1634888648518464
  31    -0.0028622758706654
  32    -0.0049699124674084
  33    -0.0033492376969521
  34    -0.0211050287843215
  35    -1.1596575519519974
  36     0.0028651752798050
  37    -0.0049538392455299
  38    -0.0033490195075292
  39    -0.0206249970958000
  40    -1.1273205513594204
  41    -0.0027392619586047
  42    -0.0046010343723202
  43     0.0031987584788437
  44     0.0205673677475317
  45     1.1234956116782440
  46     0.0027371875032744
  47    -0.0045854482742452
  48     0.0032058630784148
 Ene=    0.235663
 Spin=  Alpha
 Occup=    0.000000
   1    -0.0957663968417016
   2     0.1240060094043904
   3     2.2210959385784848
   4     0.0831924596389411
   5    -0.0003527966132650
   6    -0.0000774398532739
   7     0.2074559612959652
   8    -0.0013486431826089
   9    -0.0004371544092277
  10    -0.0039008990049545
  11    -0.0000075462602232
  12    -0.0004328489809723
  13    -0.0066242456105503
  14     0.0000118053165650
  15     0.0922078123794655
  16    -0.1165775001383279
  17    -2.1608017001113202
  18     0.0833604600729631
  19    -0.0003010363755261
  20     0.0001726805939372
  21     0.2069802269941878
  22    -0.0009861684678180
  23     0.0006535188571940
  24     0.0037007597832507
  25    -0.0000068602216730
  26    -0.0007641926466498
  27     0.0072729728595709
  28    -0.0000175453315518
  29    -0.0092373053448412
  30    -1.2456338598059038
  31     0.0002852831139030
  32     0.0051745111954495
  33    -0.0010270799604253
  34    -0.0092891408328904
  35    -1.2496896353301183
  36     0.0002989204363973
  37    -0.0051915158265335
  38     0.0010164626272522
  39     0.0098666652477790
  40     1.2041546191063512
  41    -0.0003386810430404
  42     0.0055733419228474
  43     0.0011129917526064
  44     0.0099212146470677
  45     1.2075136616042941
  46    -0.0003309925207413
  47    -0.0055870135814335
  48    -0.0011040268597869
 Ene=    0.299989
 Spin=  Alpha
 Occup=    0.000000
   1    -0.0000094914743950
   2     0.0000006826975269
   3     0.0007168765635637
   4    -0.0000251413993312
   5     0.1902794543392032
   6     0.0463196292194179
   7    -0.0003560648256707
   8     1.5453923151796174
   9     0.1616222507176842
  10    -0.0000022370350719
  11     0.0000404977199347
  12     0.0000127647175817
  13    -0.0000038483701960
  14     0.0203269419886458
  15     0.0000112029185097
  16    -0.0000122034554248
  17    -0.0008963726475814
  18    -0.0000256984624938
  19    -0.1947693440811139
  20     0.0474201464369062
  21    -0.0003015537469135
  22    -1.5308426297810376
  23     0.1456222574308266
  24     0.0000046730746061
  25    -0.0000055643893367
  26     0.0000141000267166
  27     0.0000057572120506
  28     0.0187226685026207
  29     0.0290624342767869
  30    -1.5930884824219158
  31     0.0130769467039787
  32     0.0088867518913974
  33     0.0020089034104777
  34    -0.0290665294089703
  35     1.5926729504294630
  36    -0.0130783548049402
  37     0.0088835781628325
  38     0.0019934515444518
  39     0.0244238676120540
  40    -1.5845401856228758
  41    -0.0129345544318133
  42    -0.0085511170379475
  43     0.0019836027004521
  44    -0.0244452645402114
  45     1.5851738321250268
  46     0.0129327146308641
  47    -0.0085558228926828
  48     0.0020010183599385
 Ene=    0.478626
 Spin=  Alpha
 Occup=    0.000000
   1     0.0604706266330298
   2    -0.0955479156640963
   3    -4.9607584523921986
   4     0.1518388967738221
   5     0.0000189284355084
   6     0.0000999258701253
   7     3.4460643844745000
   8     0.0000915698026027
   9     0.0022944128631926
  10     0.0051648336904065
  11     0.0000088585387452
  12    -0.0077695426039707
  13     0.0231270589816622
  14     0.0000055856280477
  15    -0.0605261572981096
  16     0.0882476153923198
  17     4.9974460667047893
  18     0.1586716694934198
  19    -0.0000173424773122
  20     0.0001087676590289
  21     3.4116013178384543
  22    -0.0001081989746367
  23     0.0022975541807218
  24    -0.0025166161207684
  25    -0.0000111049290228
  26    -0.0063612659568186
  27    -0.0203621112832903
  28     0.0000075658068710
  29    -0.1294511537627467
  30    -0.2240649718739252
  31     0.0061317728843542
  32    -0.0067071769990194
  33    -0.0017198844425553
  34    -0.1293895838448566
  35    -0.2241332520451219
  36     0.0061379912687720
  37     0.0067110977067189
  38     0.0017270336708620
  39     0.0999090331265193
  40     0.2345326173070759
  41     0.0063943242214514
  42    -0.0057155631528494
  43     0.0014581389619983
  44     0.0999359018149108
  45     0.2345820340881804
  46     0.0063885631518371
  47     0.0057123350183045
  48    -0.0014494664977361
 Ene=    0.569510
 Spin=  Alpha
 Occup=    0.000000
   1     0.0920184369184034
   2    -0.7779107711121381
   3     0.5622623581870877
   4     0.3907511553652059
   5     0.0000576001635681
   6     0.0002440942513879
   7    -0.6845786321880787
   8    -0.0001998500137295
   9    -0.0005451857290049
  10     0.0307922686266228
  11    -0.0000601176398871
  12    -0.0016601887514930
  13    -0.0400382261209592
  14     0.0000362905091866
  15     0.0939847985182592
  16    -0.8127551402968467
  17     0.8316552285420754
  18    -0.3790496598696330
  19     0.0000454870181929
  20    -0.0002422344656194
  21     0.8029598495087825
  22    -0.0001806292022405
  23     0.0006226449690804
  24     0.0323262568949558
  25    -0.0000638685946347
  26     0.0020582986136741
  27    -0.0401663792958207
  28    -0.0000352398405057
  29     0.0579475153355202
  30    -0.2033305094955330
  31    -0.0316990803513438
  32     0.0028313076798530
  33     0.0012423496437666
  34     0.0574795942177369
  35    -0.2030698633261745
  36    -0.0317469769701453
  37    -0.0028366687771779
  38    -0.0012922089977271
  39     0.0337721875407644
  40    -0.1797576822759735
  41     0.0332573153850971
  42    -0.0033657494920972
  43     0.0013412976862231
  44     0.0342569441468344
  45    -0.1800629794613712
  46     0.0332081051419645
  47     0.0033554987168642
  48    -0.0012892658058361
 Ene=    0.620271
 Spin=  Alpha
 Occup=    0.000000
   1    -0.0764047309637317
   2     0.6836138887345414
   3    -2.1622728997835221
   4     0.1378639355777260
   5    -0.0001344956793705
   6     0.0001911497993925
   7    -0.5796626675313160
   8     0.0010134780095483
   9     0.0000631001471575
  10    -0.0561995005827063
  11     0.0000318705945056
  12     0.0154085737285007
  13    -0.0345897755396264
  14    -0.0002149299802022
  15    -0.0777957172999732
  16     0.6389767221056873
  17    -1.3755144674964674
  18    -0.1205505852690050
  19    -0.0001210256384714
  20    -0.0001320540327781
  21     0.9585374380464180
  22     0.0008629397524236
  23     0.0002178525301910
  24    -0.0543105727787891
  25     0.0000392251873829
  26    -0.0115686885100083
  27    -0.0337203705827962
  28     0.0002195647849648
  29     0.4881118342447509
  30     0.4168233854554331
  31    -0.0159400105575819
  32     0.0113008184283486
  33    -0.0006860280062873
  34     0.4903112621026259
  35     0.4163752195836097
  36    -0.0157325510122190
  37    -0.0112939246275476
  38     0.0007060629484683
  39     0.4616410354173254
  40     0.4083604573353424
  41     0.0167124028694206
  42    -0.0097559384446316
  43    -0.0012920897913650
  44     0.4593213184794603
  45     0.4093017778578448
  46     0.0169032525011086
  47     0.0097717906923620
  48     0.0012783343560382
 Ene=    0.625168
 Spin=  Alpha
 Occup=    0.000000
   1    -0.0001963975045172
   2     0.0017325779311895
   3    -0.0045881257985872
   4     0.0001362259694598
   5     0.0692556292374209
   6    -0.0334652686179623
   7    -0.0006076132024931
   8    -0.5273410871347596
   9    -0.2279777026032751
  10    -0.0001281928034667
  11     0.0036037365209345
  12     0.0000953484504242
  13    -0.0000623667762379
  14     0.1003670507396244
  15    -0.0002119934559535
  16     0.0017419683711285
  17    -0.0033642308234736
  18    -0.0001201285091433
  19     0.0650002091928173
  20     0.0270298610221430
  21     0.0014766426594116
  22    -0.5238120999565778
  23     0.2223736994723058
  24    -0.0001221695995942
  25     0.0024188985437304
  26    -0.0000959868093544
  27    -0.0000585309464880
  28    -0.1036829753158823
  29     0.5559343672858889
  30    -0.1166595752392779
  31     0.0531239063706549
  32    -0.0025053335343118
  33    -0.0089961435777684
  34    -0.5540689484209278
  35     0.1185077256073909
  36    -0.0531283693573777
  37    -0.0025444938714399
  38    -0.0090594507097927
  39    -0.5798124483985965
  40     0.1714330280092443
  41     0.0518231271521514
  42    -0.0023250192339127
  43     0.0087955725047530
  44     0.5815427307864911
  45    -0.1693105880131162
  46    -0.0518149103164622
  47    -0.0022879546783837
  48     0.0087305058721127
 Ene=    0.708246
 Spin=  Alpha
 Occup=    0.000000
   1     0.0000016814023753
   2     0.0000531790109575
   3    -0.0004523557250805
   4     0.0004644295227939
   5     0.1407869058238262
   6    -0.6907533976003960
   7    -0.0003124753428618
   8    -0.1940870557165195
   9     0.6069581486300885
  10     0.0000640236567868
  11     0.0621405432540457
  12     0.0000064485187181
  13    -0.0000447529504761
  14     0.0040924906786533
  15     0.0000002726550025
  16    -0.0000419259317760
  17     0.0003778367629523
  18     0.0004852670110277
  19    -0.1294249585981488
  20    -0.6937184850921869
  21    -0.0003017856376384
  22     0.1877531051604573
  23     0.6076981235540878
  24    -0.0000689903197998
  25    -0.0620526463369963
  26     0.0000065960880530
  27     0.0000423636937065
  28     0.0064902008738655
  29     0.0203865745604045
  30    -0.0549496484032245
  31    -0.0075457021631934
  32     0.0043487057244213
  33    -0.0127075333484801
  34    -0.0202362511698878
  35     0.0550045688687642
  36     0.0075573737087868
  37     0.0043436795985348
  38    -0.0126971999001455
  39     0.0255691066443509
  40    -0.0568795008031353
  41     0.0069020488535636
  42    -0.0040820435653588
  43    -0.0120425350326093
  44    -0.0256498557623458
  45     0.0568653663404717
  46    -0.0068861733099333
  47    -0.0040889951959736
  48    -0.0120629923770459
 Ene=    0.741380
 Spin=  Alpha
 Occup=    0.000000
   1     0.0124546934207893
   2    -0.5953160072219326
   3     4.1498999307448425
   4    -0.1680122716142172
   5    -0.0000608857190771
   6    -0.0001947448310560
   7    -0.8385847405503383
   8     0.0003080657354084
   9    -0.0005059298543356
  10     0.0597283109140139
  11    -0.0000458331939630
  12    -0.0354850931923060
  13     0.0151069583924964
  14     0.0000306754462996
  15    -0.0112362203689931
  16     0.5887646521741761
  17    -4.2544834495210067
  18    -0.1968073284290690
  19     0.0001139200555977
  20    -0.0002161929892136
  21    -0.7058367247534186
  22    -0.0004496836678961
  23    -0.0003221938541472
  24    -0.0631824819693967
  25     0.0000471158172046
  26    -0.0348393432627480
  27    -0.0201082483360535
  28     0.0000376928399510
  29    -0.5403786778198132
  30    -0.2869883389578824
  31     0.0080273100649172
  32    -0.0248860599467550
  33    -0.0089777680464558
  34    -0.5404031333031869
  35    -0.2866488314903440
  36     0.0079837726665709
  37     0.0248948296491006
  38     0.0089822468323531
  39     0.5864450296249468
  40     0.3144350554387716
  41     0.0132343755884409
  42    -0.0262332264526667
  43     0.0085270257813021
  44     0.5863601531306112
  45     0.3151070644095256
  46     0.0132734458795694
  47     0.0262269067266306
  48    -0.0085064095576437
 Ene=    0.811238
 Spin=  Alpha
 Occup=    0.000000
   1     0.0000089693976016
   2    -0.0000382619967843
   3     0.0000592134548775
   4     0.0004887819587057
   5     0.1642692363658401
   6    -0.7595154492276486
   7    -0.0007024307677353
   8    -0.1707729145678832
   9     1.0510900805013164
  10    -0.0000391066262207