[Molden Format]
[Title]
                                                                                
[Atoms] AU
 c     1    6 0.13565198838529E+01 0.19265761722814E+01 0.10479462401965E+01
 n     2    7 0.28207939972575E+01 0.14176043778114E+00 -.27940979382585E+00
 c     3    6 0.21818602949574E+01 -.22974518966703E+01 -.10012295381460E+01
 n     4    7 -.25312624191662E+00 -.29694213395529E+01 -.26568164686416E+00
 c     5    6 -.18596134918260E+01 -.13857672718036E+01 0.10391522791065E+01
 c     6    6 -.11681168641703E+01 0.98784176487200E+00 0.17126490791484E+01
 o     7    8 0.35789414525441E+01 -.37061058114119E+01 -.21486387336044E+01
 h     8    1 -.24387399355117E+01 0.22444914724366E+01 0.27463311433126E+01
 o     9    8 0.21979985705171E+01 0.40072806546442E+01 0.15412498486317E+01
 h    10    1 0.45923792267317E+01 0.71287528612883E+00 -.78121473485842E+00
 h    11    1 -.79909862870129E+00 -.47442807761696E+01 -.75734484524760E+00
 h    12    1 -.37200403353089E+01 -.21757756440489E+01 0.14893879386268E+01
[GTO]
    1 0
 s    5 1.00
 0.12384016938000E+04 0.55173650481097E-02
 0.18629004992000E+03 0.41088828555946E-01
 0.42251176346000E+02 0.18225382126490E+00
 0.11676557932000E+02 0.46828459437429E+00
 0.35930506482000E+01 0.44575817336002E+00
 s    1 1.00
 0.40245147363000E+00 0.10000000000000E+01
 s    1 1.00
 0.13090182668000E+00 0.10000000000000E+01
 p    3 1.00
 0.94680970621000E+01 0.56888332011037E-01
 0.20103545142000E+01 0.31294059336471E+00
 0.54771004707000E+00 0.76065016509135E+00
 p    1 1.00
 0.15268613795000E+00 0.10000000000000E+01
 d    1 1.00
 0.80000000000000E+00 0.10000000000000E+01
 
    2 0
 s    5 1.00
 0.17128415853000E+04 -.54477995804909E-02
 0.25764812677000E+03 -.40627174632423E-01
 0.58458245853000E+02 -.18111962250584E+00
 0.16198367905000E+02 -.46843975563173E+00
 0.50052600809000E+01 -.44616846289231E+00
 s    1 1.00
 0.58731856571000E+00 0.10000000000000E+01
 s    1 1.00
 0.18764592253000E+00 0.10000000000000E+01
 p    3 1.00
 0.13571470233000E+02 -.58848116969522E-01
 0.29257372874000E+01 -.32024624762471E+00
 0.79927750754000E+00 -.75328226520436E+00
 p    1 1.00
 0.21954348034000E+00 0.10000000000000E+01
 d    1 1.00
 0.10000000000000E+01 0.10000000000000E+01
 
    3 0
 s    5 1.00
 0.12384016938000E+04 0.55173650481097E-02
 0.18629004992000E+03 0.41088828555946E-01
 0.42251176346000E+02 0.18225382126490E+00
 0.11676557932000E+02 0.46828459437429E+00
 0.35930506482000E+01 0.44575817336002E+00
 s    1 1.00
 0.40245147363000E+00 0.10000000000000E+01
 s    1 1.00
 0.13090182668000E+00 0.10000000000000E+01
 p    3 1.00
 0.94680970621000E+01 0.56888332011037E-01
 0.20103545142000E+01 0.31294059336471E+00
 0.54771004707000E+00 0.76065016509135E+00
 p    1 1.00
 0.15268613795000E+00 0.10000000000000E+01
 d    1 1.00
 0.80000000000000E+00 0.10000000000000E+01
 
    4 0
 s    5 1.00
 0.17128415853000E+04 -.54477995804909E-02
 0.25764812677000E+03 -.40627174632423E-01
 0.58458245853000E+02 -.18111962250584E+00
 0.16198367905000E+02 -.46843975563173E+00
 0.50052600809000E+01 -.44616846289231E+00
 s    1 1.00
 0.58731856571000E+00 0.10000000000000E+01
 s    1 1.00
 0.18764592253000E+00 0.10000000000000E+01
 p    3 1.00
 0.13571470233000E+02 -.58848116969522E-01
 0.29257372874000E+01 -.32024624762471E+00
 0.79927750754000E+00 -.75328226520436E+00
 p    1 1.00
 0.21954348034000E+00 0.10000000000000E+01
 d    1 1.00
 0.10000000000000E+01 0.10000000000000E+01
 
    5 0
 s    5 1.00
 0.12384016938000E+04 0.55173650481097E-02
 0.18629004992000E+03 0.41088828555946E-01
 0.42251176346000E+02 0.18225382126490E+00
 0.11676557932000E+02 0.46828459437429E+00
 0.35930506482000E+01 0.44575817336002E+00
 s    1 1.00
 0.40245147363000E+00 0.10000000000000E+01
 s    1 1.00
 0.13090182668000E+00 0.10000000000000E+01
 p    3 1.00
 0.94680970621000E+01 0.56888332011037E-01
 0.20103545142000E+01 0.31294059336471E+00
 0.54771004707000E+00 0.76065016509135E+00
 p    1 1.00
 0.15268613795000E+00 0.10000000000000E+01
 d    1 1.00
 0.80000000000000E+00 0.10000000000000E+01
 
    6 0
 s    5 1.00
 0.12384016938000E+04 0.55173650481097E-02
 0.18629004992000E+03 0.41088828555946E-01
 0.42251176346000E+02 0.18225382126490E+00
 0.11676557932000E+02 0.46828459437429E+00
 0.35930506482000E+01 0.44575817336002E+00
 s    1 1.00
 0.40245147363000E+00 0.10000000000000E+01
 s    1 1.00
 0.13090182668000E+00 0.10000000000000E+01
 p    3 1.00
 0.94680970621000E+01 0.56888332011037E-01
 0.20103545142000E+01 0.31294059336471E+00
 0.54771004707000E+00 0.76065016509135E+00
 p    1 1.00
 0.15268613795000E+00 0.10000000000000E+01
 d    1 1.00
 0.80000000000000E+00 0.10000000000000E+01
 
    7 0
 s    5 1.00
 0.22661767785000E+04 -.53893503921743E-02
 0.34087010191000E+03 -.40234721388960E-01
 0.77363135167000E+02 -.18008184205526E+00
 0.21479644940000E+02 -.46828857657651E+00
 0.66589433124000E+01 -.44692617160187E+00
 s    1 1.00
 0.80975975668000E+00 0.10000000000000E+01
 s    1 1.00
 0.25530772234000E+00 0.10000000000000E+01
 p    3 1.00
 0.17721504317000E+02 0.62630248763161E-01
 0.38635505440000E+01 0.33331138482352E+00
 0.10480920883000E+01 0.74148638308122E+00
 p    1 1.00
 0.27641544411000E+00 0.10000000000000E+01
 d    1 1.00
 0.12000000000000E+01 0.10000000000000E+01
 
    8 0
 s    3 1.00
 0.13010701000000E+02 0.33485484812989E-01
 0.19622572000000E+01 0.23472187088125E+00
 0.44453796000000E+00 0.81377028525955E+00
 s    1 1.00
 0.12194962000000E+00 0.10000000000000E+01
 
    9 0
 s    5 1.00
 0.22661767785000E+04 -.53893503921743E-02
 0.34087010191000E+03 -.40234721388960E-01
 0.77363135167000E+02 -.18008184205526E+00
 0.21479644940000E+02 -.46828857657651E+00
 0.66589433124000E+01 -.44692617160187E+00
 s    1 1.00
 0.80975975668000E+00 0.10000000000000E+01
 s    1 1.00
 0.25530772234000E+00 0.10000000000000E+01
 p    3 1.00
 0.17721504317000E+02 0.62630248763161E-01
 0.38635505440000E+01 0.33331138482352E+00
 0.10480920883000E+01 0.74148638308122E+00
 p    1 1.00
 0.27641544411000E+00 0.10000000000000E+01
 d    1 1.00
 0.12000000000000E+01 0.10000000000000E+01
 
   10 0
 s    3 1.00
 0.13010701000000E+02 0.33485484812989E-01
 0.19622572000000E+01 0.23472187088125E+00
 0.44453796000000E+00 0.81377028525955E+00
 s    1 1.00
 0.12194962000000E+00 0.10000000000000E+01
 
   11 0
 s    3 1.00
 0.13010701000000E+02 0.33485484812989E-01
 0.19622572000000E+01 0.23472187088125E+00
 0.44453796000000E+00 0.81377028525955E+00
 s    1 1.00
 0.12194962000000E+00 0.10000000000000E+01
 
   12 0
 s    3 1.00
 0.13010701000000E+02 0.33485484812989E-01
 0.19622572000000E+01 0.23472187088125E+00
 0.44453796000000E+00 0.81377028525955E+00
 s    1 1.00
 0.12194962000000E+00 0.10000000000000E+01
 
[MO]
 Sym=     1a   
 Ene= -.14208108064358E+01
 Spin= Alpha
 Occup= 2.000000
     1 -.63470984595002E-01
     2 0.12388122483919E+00
     3 -.14472793499123E-02
     4 0.26331936899055E-01
     5 0.15505095974797E-01
     6 -.46217497917592E-02
     7 0.43013416350337E-02
     8 0.73301435513661E-02
     9 0.11849553253221E-02
    10 -.11261791872870E-02
    11 0.41481211403822E-02
    12 -.30219419530951E-02
    13 0.16355385993236E-02
    14 -.97821607684723E-03
    15 0.33887874796612E-02
    16 0.94298141043195E-01
    17 0.18398932462107E+00
    18 0.10621072642084E+00
    19 0.13481227666403E-01
    20 0.27076614552969E-01
    21 0.53675254254436E-02
    22 -.20848565157147E-01
    23 -.13915501965977E-01
    24 0.29987749680809E-02
    25 -.26435987161843E-03
    26 0.28849838025172E-02
    27 -.26206239308987E-02
    28 0.10081827845891E-02
    29 -.14434420380188E-02
    30 0.28624152789998E-02
    31 -.16523468734451E+00
    32 0.32851211872784E+00
    33 0.61709150924796E-02
    34 0.56442399175688E-01
    35 -.58373922696288E-01
    36 -.46947580124366E-01
    37 0.13997743346469E-01
    38 -.15620890168072E-01
    39 -.12104590579186E-01
    40 0.25765298432929E-02
    41 0.27865513995448E-02
    42 -.53630812428376E-02
    43 -.60182458130366E-02
    44 -.94078503237764E-02
    45 0.94043938843250E-02
    46 0.90621110637601E-01
    47 0.17764584676506E+00
    48 0.97786964135603E-01
    49 -.34073706096243E-01
    50 -.13474033551293E-01
    51 0.86457163953444E-02
    52 0.14564158935499E-01
    53 0.17210739777269E-01
    54 0.93390568615070E-03
    55 0.25077114794963E-02
    56 0.46404064555223E-04
    57 -.25541155440515E-02
    58 0.13599543529665E-02
    59 -.25119303552590E-02
    60 0.12808729138860E-02
    61 -.32293303800324E-01
    62 0.60019301331466E-01
    63 -.64659348895460E-02
    64 0.24089685700528E-01
    65 -.10254898077696E-01
    66 -.14111197430136E-01
    67 -.19441693132320E-02
    68 -.59064302489610E-02
    69 -.15831337238339E-02
    70 0.76746807909157E-03
    71 0.28024400886358E-03
    72 -.10477120879552E-02
    73 -.10709706626439E-02
    74 -.19014816521921E-02
    75 0.16507814185462E-02
    76 -.19889810520432E-01
    77 0.37082532992207E-01
    78 0.24939606815040E-01
    79 0.12187217072675E-01
    80 -.57054855420054E-02
    81 -.73473337139773E-02
    82 0.36228375847064E-02
    83 -.56247623480809E-02
    84 -.37724255578006E-02
    85 0.55559931407799E-03
    86 0.36208391246113E-03
    87 -.91768322653912E-03
    88 0.69601454974707E-03
    89 -.60858919054081E-03
    90 0.49161644593990E-03
    91 0.18992843815950E+00
    92 0.37184297445336E+00
    93 0.19855752448060E+00
    94 -.71024512499902E-01
    95 0.70862279454626E-01
    96 0.58027958629462E-01
    97 -.15775290957074E-01
    98 0.15478305370093E-01
    99 0.12782984926700E-01
   100 0.46767852446643E-03
   101 0.49209419755800E-03
   102 -.95977272202443E-03
   103 -.49392050869979E-02
   104 -.40512329311048E-02
   105 0.40623801983215E-02
   106 0.39992831899714E-02
   107 -.33908017973408E-03
   108 0.64493364166062E-01
   109 0.12611947807617E+00
   110 0.68236444504499E-01
   111 -.12069729062842E-01
   112 -.36882108553160E-01
   113 -.99206387956322E-02
   114 -.22504118482107E-02
   115 -.88488734037548E-02
   116 -.26471477009120E-02
   117 -.96225960053125E-03
   118 0.20697945663200E-02
   119 -.11075349657887E-02
   120 0.13278240362327E-02
   121 0.35289733852867E-03
   122 0.10463121453728E-02
   123 0.40590549329496E-01
   124 -.17032289250084E-02
   125 0.39028927411439E-01
   126 -.22958834494963E-02
   127 0.68910179291230E-02
   128 0.12806098712362E-04
 Sym=     2a   
 Ene= -.13836550717271E+01
 Spin= Alpha
 Occup= 2.000000
     1 -.14922288176616E+00
     2 0.29654714553574E+00
     3 0.55857267134959E-02
     4 0.68861584376622E-01
     5 0.13170557670651E+00
     6 0.24771417258255E-01
     7 0.14601790797050E-01
     8 0.18985677778867E-01
     9 0.16369470454733E-02
    10 -.37679284336998E-02
    11 0.11903259793726E-01
    12 -.81353313600263E-02
    13 0.87223782172107E-02
    14 0.36665283926109E-03
    15 0.67985271036553E-02
    16 0.46676598006453E-01
    17 0.91855295839402E-01
    18 0.50576949982501E-01
    19 0.13237657178321E-01
    20 -.41266283366118E-01
    21 -.22161783911755E-01
    22 -.12666659915132E-01
    23 0.90402880078967E-02
    24 0.88952247368277E-02
    25 0.62464489407464E-03
    26 0.17044266341888E-03
    27 -.79508755749351E-03
    28 -.13828958895124E-02
    29 -.18125175219428E-02
    30 0.15852574395157E-02
    31 0.52254317738927E-01
    32 -.10599580323145E+00
    33 -.95471633623063E-02
    34 -.35200160034734E-01
    35 0.59510518137956E-01
    36 0.38620044385764E-01
    37 -.21260711178832E-02
    38 0.42492264085897E-02
    39 0.25974695836167E-02
    40 -.16142356203982E-02
    41 0.49068686116451E-03
    42 0.11235487592337E-02
    43 0.40508631021626E-02
    44 0.41980713286001E-02
    45 -.31953624082200E-02
    46 -.19876773919980E-01
    47 -.39582835551174E-01
    48 -.16757890880420E-01
    49 0.11325915091495E-01
    50 -.44681322165384E-02
    51 -.64910324693678E-02
    52 -.45995906403014E-02
    53 -.12308383413673E-02
    54 0.14048761943551E-02
    55 -.79717608460741E-03
    56 0.26163135378919E-03
    57 0.53554473081822E-03
    58 -.30065842969949E-03
    59 0.64828865382677E-03
    60 -.13374515822551E-03
    61 -.17388021601054E-02
    62 0.33773627483083E-02
    63 -.83446207688323E-02
    64 0.68449697979763E-03
    65 0.87830644187420E-02
    66 0.32679040512230E-02
    67 -.32617982294683E-02
    68 -.52104988725539E-03
    69 0.11390231540726E-02
    70 -.11038161057901E-03
    71 0.35659077544774E-03
    72 -.24620916486873E-03
    73 0.80920469305821E-03
    74 0.34313628241110E-03
    75 -.13233501955350E-03
    76 -.24659268932604E-01
    77 0.45969775703880E-01
    78 0.33894139451026E-01
    79 0.23102877732114E-01
    80 0.12102073063506E-01
    81 -.46626536591414E-02
    82 0.14865873826811E-01
    83 -.35180560892630E-02
    84 -.75712131359152E-02
    85 0.20047018577996E-02
    86 -.61653329208698E-03
    87 -.13881685657126E-02
    88 0.16377278312091E-02
    89 -.11249982612414E-02
    90 -.15428832370329E-03
    91 -.95249542446484E-01
    92 -.18676307493406E+00
    93 -.10646717442377E+00
    94 0.34450214073989E-01
    95 -.31237873395058E-01
    96 -.26879356883307E-01
    97 0.85426249153870E-02
    98 -.67670130249161E-02
    99 -.62696081496063E-02
   100 -.39695273678414E-03
   101 -.41853672375992E-04
   102 0.43880640916013E-03
   103 0.22135000184743E-02
   104 0.19133332133082E-02
   105 -.17452366869620E-02
   106 0.89259188492927E-02
   107 0.30003845378388E-02
   108 0.22501364731922E+00
   109 0.44177666652085E+00
   110 0.24755439967725E+00
   111 -.44565518193582E-01
   112 -.11762573516312E+00
   113 -.29127783425564E-01
   114 -.10701898746915E-01
   115 -.27913426057666E-01
   116 -.68596510194838E-02
   117 -.26356926072581E-02
   118 0.62264109302764E-02
   119 -.35907183230182E-02
   120 0.46516606526335E-02
   121 0.11226178339282E-02
   122 0.29549281876748E-02
   123 0.22441510755639E-01
   124 -.12964127319541E-02
   125 -.11888393955694E-01
   126 0.34166128476243E-03
   127 -.25532095761318E-03
   128 -.40438805813898E-04
 Sym=     3a   
 Ene= -.12976739809775E+01
 Spin= Alpha
 Occup= 2.000000
     1 -.31240833175900E-02
     2 0.58153044215236E-02
     3 -.14522358073738E-01
     4 -.17680995711577E-01
     5 -.82787403395043E-01
     6 -.26160310379236E-01
     7 -.21881000833141E-02
     8 0.22352262825206E-02
     9 0.18091152741428E-02
    10 0.16484642355183E-02
    11 -.22124422572371E-02
    12 0.56397802171886E-03
    13 -.31483856561524E-02
    14 -.22530090435050E-02
    15 0.45735797577611E-03
    16 0.70290609677649E-01
    17 0.13639711526634E+00
    18 0.10379409195428E+00
    19 0.29617307903355E-01
    20 0.14630849689070E-01
    21 -.63377290036272E-02
    22 -.23909865538476E-01
    23 -.96572131486564E-02
    24 0.59868755620357E-02
    25 0.12749711616296E-02
    26 0.61114083340285E-03
    27 -.18861119950324E-02
    28 0.16803216247933E-02
    29 -.11623962285190E-02
    30 0.79507263441164E-03
    31 -.14946738673277E-01
    32 0.30797527455334E-01
    33 -.22300818571909E-01
    34 -.15148769963574E+00
    35 0.92367330079376E-01
    36 0.10000516532929E+00
    37 -.76313011791891E-03
    38 -.79215767314347E-02
    39 -.28865525306577E-02
    40 0.42374203864181E-02
    41 -.11526624504661E-02
    42 -.30847579359520E-02
    43 0.96000498182180E-02
    44 0.12538101314424E-02
    45 -.39194082132676E-02
    46 0.18905119384783E+00
    47 0.37467074022801E+00
    48 0.22526830839573E+00
    49 0.86141647354866E-02
    50 -.40987302945449E-01
    51 -.20137626718959E-01
    52 0.16717598700687E-02
    53 0.36598314798164E-01
    54 0.14106211990182E-01
    55 0.10214626727125E-02
    56 0.32105704888710E-02
    57 -.42320331615835E-02
    58 0.11597400264305E-02
    59 -.33179062599455E-02
    60 0.42431228485681E-02
    61 -.10498701902467E+00
    62 0.20329686195291E+00
    63 -.12693281389944E-01
    64 0.64917462162046E-01
    65 -.36352563902799E-01
    66 -.41552087042503E-01
    67 -.56713081088136E-02
    68 -.16193519691084E-01
    69 -.41998327748679E-02
    70 0.17195222921826E-02
    71 0.14233101516061E-02
    72 -.31428324437888E-02
    73 -.32269841391173E-02
    74 -.54312922388124E-02
    75 0.52296361537594E-02
    76 -.40684207457999E-01
    77 0.75448199547686E-01
    78 0.55946340739167E-01
    79 0.52355785956215E-02
    80 -.36343118731350E-01
    81 -.16858119150076E-01
    82 0.18238447003000E-02
    83 -.21201366429989E-01
    84 -.93254108564577E-02
    85 -.94056134161493E-03
    86 0.23124645787138E-02
    87 -.13719032370988E-02
    88 0.34584278725591E-03
    89 -.47944069810595E-03
    90 0.19806683047324E-02
    91 -.13947115211512E+00
    92 -.27417505772558E+00
    93 -.17907755185465E+00
    94 0.32926514620277E-01
    95 -.41917072567365E-01
    96 -.30566528527810E-01
    97 0.92637472489480E-02
    98 -.12038949636143E-01
    99 -.86993585048357E-02
   100 0.16124603026396E-03
   101 -.71837028003820E-03
   102 0.55712424977424E-03
   103 0.23682597236589E-02
   104 0.18372045963892E-02
   105 -.22501023714576E-02
   106 0.78610736057329E-02
   107 -.72420820799385E-03
   108 -.63786912811168E-01
   109 -.12604207614257E+00
   110 -.78806131230684E-01
   111 0.12591321921839E-01
   112 0.25624452644275E-01
   113 0.51531253696969E-02
   114 0.39046033505273E-02
   115 0.65351601037934E-02
   116 0.10272110590746E-02
   117 0.41839610250366E-03
   118 -.12563154916153E-02
   119 0.83791938911168E-03
   120 -.11553967896994E-02
   121 -.20976880512457E-03
   122 -.55568046280118E-03
   123 0.23845028233374E-01
   124 -.27924359479596E-02
   125 0.87970117169698E-01
   126 -.98356411011550E-02
   127 0.30656989976749E-01
   128 0.16433170072249E-02
 Sym=     4a   
 Ene= -.12289917423429E+01
 Spin= Alpha
 Occup= 2.000000
     1 -.31514718967870E-01
     2 0.64835446241342E-01
     3 -.16979984045084E-01
     4 0.27306614943566E-01
     5 -.13967257104985E+00
     6 -.67770031339973E-01
     7 0.11436548075259E-01
     8 0.36119360791051E-02
     9 -.32697374903438E-02
    10 0.16153244730465E-02
    11 -.26270420512057E-02
    12 0.10117175781592E-02
    13 -.88591299595764E-02
    14 -.53595018536126E-02
    15 0.34209732595776E-02
    16 0.21877320787313E+00
    17 0.43851566406544E+00
    18 0.26639134226283E+00
    19 0.83079149646299E-02
    20 0.83445248702723E-02
    21 -.69264434911157E-04
    22 -.31104518776373E-01
    23 -.90927475454922E-02
    24 0.91922729634339E-02
    25 0.30713024743480E-02
    26 0.14500191699360E-02
    27 -.45213216442841E-02
    28 0.16915985978328E-02
    29 -.42234362592068E-02
    30 0.33402742715862E-02
    31 -.22956254733988E-01
    32 0.46696791266763E-01
    33 -.83146566728085E-02
    34 0.61681516200032E-01
    35 0.14969838550900E+00
    36 0.35006290171490E-01
    37 0.18351677846122E-01
    38 0.12520074060751E-01
    39 -.25287851694977E-02
    40 -.75772039855663E-02
    41 0.92473200457687E-02
    42 -.16701160602024E-02
    43 0.32056705142293E-02
    44 0.42285907141191E-02
    45 0.36619034212702E-02
    46 -.12509019640181E+00
    47 -.25316846216204E+00
    48 -.13310311598709E+00
    49 -.24712844870900E-01
    50 -.99565932829927E-02
    51 0.61998891386802E-02
    52 0.11669343341260E-01
    53 -.65083998967075E-02
    54 -.74594366857369E-02
    55 -.91942191926925E-04
    56 -.21576445597463E-02
    57 0.22495867516733E-02
    58 0.58200993079830E-03
    59 0.22795055967298E-02
    60 -.32027608223165E-02
    61 0.58582902582215E-01
    62 -.11669979995525E+00
    63 -.86691366360592E-03
    64 -.27967177744323E-01
    65 0.42442147997424E-01
    66 0.28728464320207E-01
    67 0.49238048708889E-02
    68 0.14452001850321E-01
    69 0.38057398747855E-02
    70 -.50102754885659E-03
    71 -.83220679925884E-03
    72 0.13332343481154E-02
    73 0.30294207792095E-02
    74 0.32103123078333E-02
    75 -.33482695416498E-02
    76 0.26695473359813E-02
    77 -.50229400862962E-02
    78 -.17043532694585E-02
    79 0.17643828899819E-01
    80 0.11285545092257E-01
    81 -.27361472801155E-02
    82 0.12582632369428E-01
    83 0.79295074482845E-02
    84 -.19993013201622E-02
    85 0.19897123305706E-02
    86 -.21499012013675E-02
    87 0.16018887079682E-03
    88 -.42434255863228E-03
    89 -.10872870703011E-02
    90 -.86193100155356E-03
    91 -.38600964755072E-01
    92 -.75896041876141E-01
    93 -.55189187614783E-01
    94 0.25435451864838E-01
    95 0.10599505222042E-01
    96 -.62361285955263E-02
    97 0.92126068305392E-02
    98 0.40551314162890E-02
    99 -.21715818037279E-02
   100 -.15869092368137E-02
   101 0.14564070575810E-02
   102 0.13050217923260E-03
   103 0.43186469797581E-03
   104 0.11400799481110E-02
   105 0.29845268184982E-03
   106 -.31090604653812E-02
   107 0.66150794030017E-03
   108 -.86413725425176E-01
   109 -.17087389896094E+00
   110 -.11939215403961E+00
   111 0.23334351361721E-01
   112 0.22276248832815E-01
   113 -.64439050916791E-03
   114 0.84789984815827E-02
   115 0.66886912255113E-02
   116 -.80271605978611E-03
   117 -.17212641830325E-03
   118 -.77368123591965E-03
   119 0.94580765422290E-03
   120 -.17591070229636E-02
   121 -.20404387895215E-03
   122 -.49122680512488E-04
   123 0.12076132127186E+00
   124 -.14526701145801E-01
   125 -.80645070957618E-01
   126 0.83297745839278E-02
   127 -.23529233290602E-01
   128 0.47684878650743E-03
 Sym=     5a   
 Ene= -.10743426145232E+01
 Spin= Alpha
 Occup= 2.000000
     1 -.62664229027305E-01
     2 0.13336440011632E+00
     3 0.32838506370069E-02
     4 -.10963358029059E+00
     5 -.79464635621819E-01
     6 0.13218803042926E-01
     7 -.25036961338827E-01
     8 -.35871122619368E-02
     9 0.89063135223076E-02
    10 0.53566341773409E-02
    11 -.28444590309196E-02
    12 -.25121751464213E-02
    13 0.32053872727576E-02
    14 -.27233235729077E-02
    15 -.12260991627123E-02
    16 -.30616277326869E-01
    17 -.65905649248339E-01
    18 -.20810448471479E-01
    19 0.28945097125535E-01
    20 -.42714033469962E-01
    21 -.29240583604640E-01
    22 -.17027754737639E-01
    23 0.19838187435787E-01
    24 0.15063699782386E-01
    25 0.60301084641356E-03
    26 -.17307348450337E-02
    27 0.11277239986202E-02
    28 -.30484819071564E-02
    29 -.12162350580007E-02
    30 0.15548266830616E-03
    31 0.54509105254853E-01
    32 -.11775451203713E+00
    33 -.18057061729942E-01
    34 0.86447246672415E-01
    35 -.28667681767798E-01
    36 -.47348071913542E-01
    37 0.10140079068353E-01
    38 -.81992529084900E-02
    39 -.75094621099979E-02
    40 -.32372262360146E-02
    41 -.28236966639437E-03
    42 0.35195959024089E-02
    43 -.67837744237279E-02
    44 0.35014089397626E-03
    45 0.11627540493676E-02
    46 -.78795875844174E-01
    47 -.16452732324130E+00
    48 -.91153598130518E-01
    49 0.79130742176737E-01
    50 -.60875895453784E-01
    51 -.57342558440860E-01
    52 -.41228346408969E-01
    53 0.25079026179597E-01
    54 0.27192905426968E-01
    55 -.19535930661839E-02
    56 -.32235159748412E-03
    57 0.22759446636680E-02
    58 -.52049220575840E-02
    59 -.34222663027372E-03
    60 0.11925435761939E-02
    61 -.14832702156194E+00
    62 0.29973638200904E+00
    63 0.57544207630806E-01
    64 0.13731416672475E-01
    65 0.12548122918014E+00
    66 0.45048802376025E-01
    67 -.83876709916567E-02
    68 0.31416897725891E-01
    69 0.16172231678937E-01
    70 -.50793760296395E-03
    71 0.59404610660408E-02
    72 -.54325234630769E-02
    73 0.72176655909419E-02
    74 0.12719996591141E-03
    75 0.27517880727514E-02
    76 -.19508057794156E+00
    77 0.38019864033620E+00
    78 0.13812669068071E+00
    79 0.97526664093903E-02
    80 -.71687562313730E-01
    81 -.33011340963524E-01
    82 0.19261328827385E-01
    83 -.29527207345276E-01
    84 -.19904637148651E-01
    85 0.96647996705035E-03
    86 0.45585915108774E-02
    87 -.55250714779278E-02
    88 0.25696644574711E-02
    89 -.35076785151821E-02
    90 0.50573671615714E-02
    91 0.50300029366329E-01
    92 0.10036273671842E+00
    93 0.78277289028769E-01
    94 0.90279029070426E-02
    95 0.51329096598571E-02
    96 -.16591165309036E-02
    97 0.35013415844853E-02
    98 0.32738874934043E-02
    99 -.12468702062633E-03
   100 -.41195572053322E-03
   101 0.48248275599060E-03
   102 -.70527035457389E-04
   103 0.56769634159068E-04
   104 0.17487749106866E-03
   105 0.24558552280787E-03
   106 0.90877494514018E-01
   107 0.69052817430321E-02
   108 -.42711534754430E-01
   109 -.86504976665633E-01
   110 -.62449660699598E-01
   111 -.15548887947084E-01
   112 0.34446158346402E-02
   113 0.78247114148557E-02
   114 -.55720814296391E-02
   115 -.61302987529179E-03
   116 0.20567802374293E-02
   117 0.69322408481466E-03
   118 -.60170792719864E-03
   119 -.91516157616021E-04
   120 0.87280276532037E-03
   121 0.12308802443045E-03
   122 -.74099693087765E-03
   123 -.29973622388602E-01
   124 0.53677532442817E-02
   125 -.76798718522254E-01
   126 0.77877755349385E-02
   127 0.72221391624723E-01
   128 0.23544447345145E-02
 Sym=     6a   
 Ene= -.92448064872375E+00
 Spin= Alpha
 Occup= 2.000000
     1 0.71298573826364E-01
     2 -.15563630742054E+00
     3 -.19895334303071E-01
     4 0.13981593941474E+00
     5 0.56237505744688E-01
     6 -.35094216341634E-01
     7 0.43590018267604E-01
     8 0.18104735881955E-01
     9 -.10710159860724E-01
    10 -.22112228146425E-02
    11 0.18656983312943E-03
    12 0.20246529815130E-02
    13 -.25585095719994E-02
    14 0.11925523908734E-02
    15 0.85069010340201E-06
    16 0.58139678364144E-01
    17 0.12402511878913E+00
    18 0.76986712610906E-01
    19 -.13913576008621E+00
    20 -.48935108915171E-01
    21 0.37763833871499E-01
    22 0.63489427983479E-01
    23 0.14652743948968E-01
    24 -.20336186249247E-01
    25 0.29015765007848E-02
    26 -.15203088736093E-02
    27 -.13812676271755E-02
    28 0.14894348259432E-02
    29 -.16423286891637E-02
    30 -.48555137270565E-03
    31 0.80682138793953E-01
    32 -.17685391685856E+00
    33 -.31891648203026E-02
    34 0.16410572629067E+00
    35 0.39375303536852E-01
    36 -.51961075640750E-01
    37 0.21402072076943E-01
    38 -.74200940260520E-02
    39 -.11853179949420E-01
    40 -.47699688808779E-02
    41 0.18061250717653E-02
    42 0.29638438091125E-02
    43 -.24587998357748E-02
    44 0.32741572863892E-02
    45 -.84684179655785E-04
    46 -.18406243925977E-02
    47 -.26464268605305E-02
    48 -.24569525982067E-01
    49 0.24955869683398E+00
    50 -.12273704100896E-01
    51 -.10819502821587E+00
    52 -.13546965403246E+00
    53 -.15252115793505E-02
    54 0.55421845774859E-01
    55 -.29212380656269E-02
    56 0.16927488259116E-02
    57 0.12284892397154E-02
    58 -.55945798227685E-02
    59 -.98848058456381E-03
    60 0.32232052756384E-02
    61 -.12907913502178E+00
    62 0.27318256478649E+00
    63 0.87869877465023E-01
    64 -.45228822173641E-01
    65 -.13134638125839E+00
    66 -.34393817318353E-01
    67 -.49501243970086E-02
    68 -.24311230730242E-01
    69 -.77808208793850E-02
    70 0.31997944992582E-02
    71 0.32918091577823E-03
    72 -.35289754150365E-02
    73 -.18291543709585E-02
    74 -.56133912509004E-02
    75 0.41798025163719E-02
    76 0.87322197705944E-01
    77 -.17969633905670E+00
    78 -.67930870588546E-01
    79 -.89037271977258E-01
    80 -.79493995948525E-01
    81 0.46892979020611E-02
    82 -.36007340023770E-01
    83 -.12501029143898E-01
    84 0.98398500642418E-02
    85 -.55952354101296E-02
    86 0.34506240162022E-02
    87 0.21446113939274E-02
    88 0.16906371524828E-03
    89 0.45975556080616E-02
    90 -.27405975282613E-03
    91 0.36625448976442E-01
    92 0.75745031352947E-01
    93 0.53689868505689E-01
    94 0.52052470718264E-01
    95 0.20741969047799E-01
    96 -.13145168028898E-01
    97 0.27794553992556E-01
    98 0.10611668367780E-01
    99 -.72064356001386E-02
   100 -.17906881613218E-02
   101 0.19386134532350E-02
   102 -.14792529191322E-03
   103 0.79424344326342E-03
   104 0.12277959263585E-02
   105 0.52626219592953E-03
   106 -.60713239036500E-01
   107 -.10895681190504E-01
   108 0.29959435258551E-01
   109 0.63101302051353E-01
   110 0.39984267420265E-01
   111 0.45878838532168E-01
   112 0.61303014403391E-02
   113 -.16498440337431E-01
   114 0.21469751067298E-01
   115 0.67837689378298E-02
   116 -.61373573008562E-02
   117 -.82326193432112E-03
   118 0.29625911605738E-03
   119 0.52700281826374E-03
   120 -.19224703333836E-02
   121 -.33925865525873E-03
   122 0.88966729422273E-03
   123 0.13249806099594E+00
   124 -.41532318719371E-02
   125 0.17938064187725E-01
   126 -.22653583092050E-02
   127 0.14459243532540E+00
   128 0.18410783012669E-01
 Sym=     7a   
 Ene= -.89425666632812E+00
 Spin= Alpha
 Occup= 2.000000
     1 0.12109889249333E+00
     2 -.26619146962104E+00
     3 -.48547078073378E-01
     4 -.47345303046494E-01
     5 0.13880083872239E+00
     6 0.75708905780317E-01
     7 0.22413281009748E-01
     8 0.37451124704124E-01
     9 0.58717985306377E-02
    10 -.40398187040882E-02
    11 0.22643931682425E-02
    12 0.17754255358457E-02
    13 0.60539218200601E-02
    14 0.71409679816942E-02
    15 -.41484594593543E-02
    16 -.14338414736995E-01
    17 -.29663913416187E-01
    18 -.35430235669890E-01
    19 -.34414230586798E-01
    20 0.29205886175367E+00
    21 0.13231426494453E+00
    22 0.22160962219384E-01
    23 -.15489639576171E+00
    24 -.71791432443544E-01
    25 -.35958689988118E-02
    26 0.51108886838639E-02
    27 -.15150196850521E-02
    28 0.67425764936319E-02
    29 0.46003657965481E-02
    30 -.55715023103784E-03
    31 -.11455121139920E+00
    32 0.25457603507173E+00
    33 0.30761327350077E-01
    34 0.13962638757080E-01
    35 0.17487936337651E+00
    36 0.64923189687646E-01
    37 -.18119419732814E-01
    38 0.37061412380894E-01
    39 0.22479159060530E-01
    40 -.28894573587167E-03
    41 0.45373280499611E-02
    42 -.42483823140895E-02
    43 0.37175215134342E-02
    44 -.11322201196836E-02
    45 0.32906681805682E-02