
 Primary working directories:    /u/s/ben/molpro
 Secondary working directories:  /u/s/ben/molpro

 blaslib=default         
 mxmblk= 32  mxmbln= 32  ncache=131072  mindgm= 32  mindgv= 32  mindgc= 24  mindgl=  8  mindgr=  4  noblas=0  nroll=2  minvec=7
 default implementation of scratch files=df  

 Including file /usr/localmqm/SVNBin/molpro2002.6/bin/molproi.rc
 ***,SA-2-CAS(2/2)
                                                           ! One step of S0/S1 conical intersection search in Cartesian coordinates
 memory,10,m
 FILE,2,but5.wfn
 punch,all.pun
 geometry={
 nosymm,noorient;
 C,,        -3.47939045,     -0.23510132,      0.39418477
 C,,        -0.98623629,     -0.06566735,      0.69519811
 C,,         1.14072498,      0.47728046,     -0.90614600
 C,,         3.55350561,      0.49915922,     -0.30754951
 H,,        -4.92545923,      1.31018850,      0.69214101
 H,,        -4.59523497,     -2.00099479,     -0.06430543
 H,,        -0.50491568,     -0.50893756,      2.71799450
 H,,         0.62841234,      0.97573875,     -2.82297692
 H,,         4.20731343,      0.01635085,      1.55827083
 H,,         4.96785745,      0.97701411,     -1.68532983
 }
 basis=6-31g**
  
 INT
  
 UHF
  
 MULTI
 config,csf;
 OCC,17;
 CLOSED,13;
 wf,30,0,0
 STATE,4;
 MAXITER,100;
 CPMCSCF,GRAD,  4.1,record=5100.1
 CPMCSCF,GRAD,  3.1,record=5101.1
 CPMCSCF,GRAD,  2.1,record=5102.1
 FORCES
 SAMC,5100.1
 FORCES
 SAMC,5101.1
 FORCES
 SAMC,5102.1
 ---

 Variables initialized (303), CPU time= 0.01 sec
 Default parameters read. Elapsed time= 0.01 sec
 Checking input...
 Passed
1


                                         ***  PROGRAM SYSTEM MOLPRO  ***
                                      Copyright, University of Birmingham, 1997

                                    Version 2002.6 linked 15 Feb 2006 02:39:27


 **********************************************************************************************************************************
 LABEL *   SA-2-CAS(2/2)                                                                 
 Linux-2.6.9-42.0.2.ELsmp/compute-4-15.local(x86_64) 64 bit version                      DATE:   5-Jul-07         TIME: 13:00:27  
 **********************************************************************************************************************************

 Installed patches: configure_xeon corlsi darwin_conf dft_orbital_hi enest_dummy fujitsu-ssl2
                    fujitsu_conf ga_conflict2 ia64root_check lapack_init mkl60 modelopt
                    molden_orbital_normalization mpputil mxm_fujitsu nec_parse opteron2 opteron6
                    opteron_parse2 patcher_printf posinp readop_multipole_np

 Modules:           doc
 **********************************************************************************************************************************

 Variable memory set to   10000000 words,  buffer space   230000 words


 Permanent file  2  but5.wfn assigned.  Implementation=df    Size=  1.49 MB


 PROGRAM * RESTART 


 VARIABLES READ FROM FILE 2:

 FOCKDONE                         1.00000000
 SCFDONE                          1.00000000
 DIRECT                           0.00000000
 NELEC                           30.00000000
 SPIN                             0.00000000
 PROGRAM                =    FORCES
 CPUSTEP / SEC                    8.46000000
 SYSSTEP / SEC                    0.01000000
 WALLSTEP / SEC                   8.48000000
 !DFSCF                           0.00000000
 BASINP                         600.00000000
 CPUTOT / SEC                    39.46000000
 DMX / AU                         0.00000000
 DMY / AU                         0.00000000
 DMZ / AU                         0.00000000
 ENUC / AU                      103.18067409
 EPS1(1:17) / AU                -11.24331075   -11.24055264   -11.22904302   -11.21492694    -1.08742806    -1.00199824
                                 -0.82811572    -0.73706915    -0.64676602    -0.60659827    -0.55899449    -0.55525142
                                 -0.49728981    -0.37265670    -0.10169975    -0.09325557     0.22250606
 GRADENERG / AU                -154.71417226
 GRADEXFAC                     9999.00000000
 GRADMETHOD                       5.00000000
 ITERATIONS                       0.00000000
 LASTNELEC                        4.00000000
 LASTSPIN                         0.00000000
 LASTSYM                          1.00000000
 ORBITAL                       2140.20000000
 SEIG_MIN                         0.00316726
 STATUS                           1.00000000
 SYSTOT / SEC                     2.80000000
 WALLTOT / SEC                   45.89000000
 LASTORB                =    MCSCF
 PGROUP                 =    C1  
 !NEWMOL                         -1.00000000
 !NEWSYM                         -1.00000000
 TRDMX(1:6) / AU                  0.00437138    -0.12543630    -0.01483366    -0.00819999     2.14176253     0.00250241
 TRDMY(1:6) / AU                 -0.00573274    -0.01621998     0.04386547     0.05457984     0.20766080     0.02626910
 TRDMZ(1:6) / AU                 -0.00126282     0.02539262     0.01383041     0.01288904    -0.03375795     0.00614761


 **********************************************************************************************************************************
 DATASETS  * FILE   NREC   LENGTH (MB)   RECORD NAMES
              2       7        1.57       500      600      700     1000     2200     2140      701   
                                          VAR    BASINP    GEOM     BASIS     UHF     MCSCF    GEOM   

 PROGRAMS   *        TOTAL   RESTART
 CPU TIMES  *         0.04      0.00
 REAL TIME  *         0.05 SEC
 DISK USED  *         0.00 MB
 **********************************************************************************************************************************

 PUNCHFILE ALL.PUN OPENED
 SETTING BASIS          =    6-31G**


 Using spherical harmonics

 Library entry C      S 6-31G                selected for orbital group  1
 Library entry C      P 6-31G                selected for orbital group  1
 Library entry C      D 6-31G*               selected for orbital group  1
 Library entry H      S 6-31G                selected for orbital group  2
 Library entry H      P 6-31G**              selected for orbital group  2

1PROGRAM * SEWARD (Integral evaluation for generally contracted gaussian basis sets)     Author: Roland Lindh, 1990

 Geometry written to block  1 of record 702


 Point group  C1  



 ATOMIC COORDINATES

 NR  ATOM    CHARGE       X              Y              Z

   1  C       6.00   -3.479390450   -0.235101320    0.394184770
   2  C       6.00   -0.986236290   -0.065667350    0.695198110
   3  C       6.00    1.140724980    0.477280460   -0.906146000
   4  C       6.00    3.553505610    0.499159220   -0.307549510
   5  H       1.00   -4.925459230    1.310188500    0.692141010
   6  H       1.00   -4.595234970   -2.000994790   -0.064305430
   7  H       1.00   -0.504915680   -0.508937560    2.717994500
   8  H       1.00    0.628412340    0.975738750   -2.822976920
   9  H       1.00    4.207313430    0.016350850    1.558270830
  10  H       1.00    4.967857450    0.977014110   -1.685329830

 Bond lengths in Bohr (Angstrom)

  1--2  2.516969322   1--5  2.137244363   1--6  2.138621520   2--3  2.717178597   2--7  2.125997000
       (1.331922901)       (1.130981092)       (1.131709852)       (1.437869095)       (1.125029244)

  3--4  2.486022286   3--8  2.045767749   4--9  2.035154571   4-10  2.031505608
       (1.315546434)       (1.082573750)       (1.076957497)       (1.075026549)

 Bond angles

  1--2--3  135.91811886   1--2--7  108.90549609   2--1--5  127.21860945   2--1--6  126.73004917

  2--3--4  128.28513363   2--3--8  113.88203529   3--2--7  115.16175396   3--4--9  122.03620328

  3--4-10  120.96174718   4--3--8  117.80815316   5--1--6  105.89528615   9--4-10  116.99529663

 NUCLEAR CHARGE:                   30
 NUMBER OF PRIMITIVE AOS:         154
 NUMBER OF SYMMETRY AOS:          150
 NUMBER OF CONTRACTIONS:           86   (  86A   )
 NUMBER OF CORE ORBITALS:           4   (   4A   )
 NUMBER OF VALENCE ORBITALS:       22   (  22A   )


 NUCLEAR REPULSION ENERGY  103.18087456


 Eigenvalues of metric

         1 0.317E-02 0.418E-02 0.618E-02 0.155E-01 0.293E-01 0.372E-01 0.401E-01 0.411E-01


 Contracted 2-electron integrals neglected if value below      1.0D-11
 AO integral compression algorithm  1   Integral accuracy      1.0D-11

     26.214 MB (compressed) written to integral file ( 44.0%)


 NUMBER OF SORTED TWO-ELECTRON INTEGRALS:    6999411.     BUFFER LENGTH:  32768
 NUMBER OF SEGMENTS:   1  SEGMENT LENGTH:    6999411      RECORD LENGTH: 524288

 Memory used in sort:       7.56 MW

 SORT1 READ    7429143. AND WROTE    5806015. INTEGRALS IN   17 RECORDS. CPU TIME:     0.26 SEC, REAL TIME:     0.54 SEC
 SORT2 READ    5806015. AND WROTE    6999411. INTEGRALS IN  100 RECORDS. CPU TIME:     0.28 SEC, REAL TIME:     0.45 SEC

 FILE SIZES:   FILE 1:   29.7 MBYTE,  FILE 4:   71.3 MBYTE,   TOTAL:  101.0 MBYTE

 OPERATOR DM      FOR CENTER  0  COORDINATES:    0.000000    0.000000    0.000000


 **********************************************************************************************************************************
 DATASETS  * FILE   NREC   LENGTH (MB)   RECORD NAMES
              1      20       25.78       701      600      500      702      960      900      950      970     1000     1100   
                                         GEOM    BASINP     VAR     GEOM    ABASIS   SYMINP    ZMAT    AOBASIS   BASIS      S 
                                         1400     1410     1200     1210     1080     1600      129     1650     1300     1700   
                                           T        V       H0       H01     AOSYM     SMH      P2S    MOLCAS    ERIS     OPER   

              2       8        1.58       500      600      700     1000     2200     2140      701      702   
                                          VAR    BASINP    GEOM     BASIS     UHF     MCSCF    GEOM     GEOM   

 PROGRAMS   *        TOTAL       INT   RESTART
 CPU TIMES  *         2.45      2.39      0.00
 REAL TIME  *         6.54 SEC
 DISK USED  *       103.01 MB
 **********************************************************************************************************************************

1PROGRAM * UHF-SCF       Authors: W. Meyer, H.-J. Werner


 NUMBER OF ELECTRONS:      15+   15-    SPACE SYMMETRY=1    SPIN SYMMETRY=Singlet 
 CONVERGENCE THRESHOLDS:    1.00E-06 (Density)    1.00E-07 (Energy)
 MAX. NUMBER OF ITERATIONS:       60
 INTERPOLATION TYPE:            DIIS
 INTERPOLATION STEPS:              2 (START)      1 (STEP)
 LEVEL SHIFTS:                  0.00 (ALPHA)   0.00 (BETA) 




 Molecular orbitals read from record     2200.2  Type=UHF/ALPHA (state 1.1)
 Molecular orbitals read from record     2200.2  Type=UHF/BETA (state 1.1)

 Molecular orbital dump at record        2200.2

 ITERATION    DDIFF          GRAD             ENERGY        2-EL.EN.            DIPOLE MOMENTS         DIIS
    1      0.000D+00      0.000D+00      -154.75209023    307.331811  -0.073158   0.047114   0.046855    0
    2      0.997D-05      0.000D+00      -154.75209036    307.330990  -0.073555   0.047159   0.046913    0
    3      0.401D-05      0.179D-05      -154.75209037    307.330817  -0.073057   0.047187   0.046833    1
    4      0.177D-05      0.953D-06      -154.75209038    307.330934  -0.073299   0.047164   0.046856    2
    5      0.859D-06      0.260D-06      -154.75209038    307.330852  -0.073239   0.047164   0.046858    3
    6      0.247D-06      0.000D+00      -154.75209038    307.330888  -0.073250   0.047162   0.046854    0

 Final alpha occupancy:  15
 Final beta  occupancy:  15

 !UHF STATE 1.1 ENERGY               -154.75209038
 Nuclear energy                       103.18087456
 One-electron energy                 -411.59840897
 Two-electron energy                  153.66544404
 Virial quotient                       -0.99940234
 !UHF STATE 1.1 DIPOLE MOMENTS:        -0.07325013     0.04716160     0.04685427

 ELECTRON ORBITALS FOR POSITIVE SPIN
 ===================================


   Orb  Occ    Energy  Couls-En    Coefficients

                                   1 1s      1 1s      1 1s      1 2px     1 2py     1 2pz     1 2px     1 2py     1 2pz     1 3d0  
                                   1 3d2-    1 3d1+    1 3d2+    1 3d1-    2 1s      2 1s      2 1s      2 2px     2 2py     2 2pz  
                                   2 2px     2 2py     2 2pz     2 3d0     2 3d2-    2 3d1+    2 3d2+    2 3d1-    3 1s      3 1s   
                                   3 1s      3 2px     3 2py     3 2pz     3 2px     3 2py     3 2pz     3 3d0     3 3d2-    3 3d1+ 
                                   3 3d2+    3 3d1-    4 1s      4 1s      4 1s      4 2px     4 2py     4 2pz     4 2px     4 2py  
                                   4 2pz     4 3d0     4 3d2-    4 3d1+    4 3d2+    4 3d1-    5 1s      5 1s      5 2px     5 2py  
                                   5 2pz     6 1s      6 1s      6 2px     6 2py     6 2pz     7 1s      7 1s      7 2px     7 2py  
                                   7 2pz     8 1s      8 1s      8 2px     8 2py     8 2pz     9 1s      9 1s      9 2px     9 2py  
                                   9 2pz    10 1s     10 1s     10 2px    10 2py    10 2pz  

   1.1   +   -11.2506  -35.2894  0.990425  0.024073 -0.011597  0.000112 -0.000039  0.000106 -0.000250  0.000066 -0.000304 -0.000758
                                 0.000036  0.000106  0.000408  0.000210  0.105810  0.002048 -0.000239  0.000595  0.000070  0.000047
                                -0.002019 -0.000326  0.000674  0.000179 -0.000063 -0.000068 -0.000271  0.000050  0.002460 -0.000153
                                 0.000053  0.000215  0.000031 -0.000006 -0.002725 -0.000324  0.000411  0.000064 -0.000002 -0.000030
                                -0.000031 -0.000018  0.000037 -0.000153  0.002309 -0.000067 -0.000008  0.000012 -0.000953  0.000129
                                -0.000694  0.000008  0.000001  0.000020  0.000060 -0.000022 -0.000459  0.002145 -0.000299  0.000511
                                 0.000087 -0.000455  0.002158 -0.000196 -0.000562 -0.000081 -0.000149  0.000660 -0.000107 -0.000005
                                -0.000044 -0.000170  0.000107  0.000128  0.000017 -0.000019 -0.000005  0.000210  0.000022  0.000001
                                 0.000001 -0.000101 -0.000104  0.000025 -0.000002  0.000012

   2.1   +   -11.2433  -36.5751 -0.106220 -0.003419  0.006118 -0.000660 -0.000020 -0.000162  0.002963  0.000281  0.000012  0.000207
                                -0.000016 -0.000254 -0.000399  0.000063  0.988841  0.024799 -0.015420 -0.000425 -0.000070  0.000045
                                 0.001801 -0.000107  0.001282 -0.000075  0.000153 -0.000085  0.000788 -0.000244  0.056479  0.000785
                                 0.001729  0.000350  0.000095 -0.000212 -0.002528 -0.000155 -0.000084 -0.000114 -0.000165  0.000427
                                -0.000228  0.000153  0.002022 -0.000180  0.001679  0.000066  0.000017 -0.000032 -0.000798 -0.000086
                                 0.000059  0.000055 -0.000004  0.000030  0.000042 -0.000038 -0.000121  0.000325  0.000015 -0.000125
                                -0.000015 -0.000122  0.000331 -0.000006  0.000118  0.000036 -0.000356  0.001635  0.000153 -0.000150
                                 0.000519 -0.000234 -0.000292  0.000029  0.000004  0.000000 -0.000099 -0.000151  0.000047 -0.000002
                                 0.000020 -0.000010  0.000232 -0.000006 -0.000002  0.000008

   3.1   +   -11.2358  -36.5747  0.003572 -0.000001  0.000548  0.000004 -0.000010  0.000073  0.000189 -0.000060  0.000177  0.000031
                                 0.000004  0.000085  0.000071 -0.000021 -0.056640 -0.002097  0.005116 -0.000279 -0.000019  0.000248
                                 0.002516  0.000462 -0.000999 -0.000120 -0.000134  0.000446 -0.000317  0.000157  0.992376  0.024923
                                -0.015874 -0.000127 -0.000082  0.000144  0.000082  0.000550 -0.002271  0.000088  0.000085  0.000103
                                 0.000717 -0.000262  0.064343  0.000598  0.004268  0.000426  0.000037  0.000097 -0.002234 -0.000288
                                 0.000494 -0.000046 -0.000017 -0.000147 -0.000250  0.000066  0.000019  0.000012  0.000010 -0.000011
                                -0.000002  0.000012 -0.000020  0.000002  0.000008  0.000003 -0.000154 -0.000263 -0.000052  0.000007
                                -0.000039 -0.000485  0.001688 -0.000113  0.000132 -0.000478 -0.000176 -0.000261 -0.000043  0.000013
                                -0.000057 -0.000031  0.000519 -0.000069 -0.000006  0.000005

   4.1   +   -11.2221  -35.3648 -0.000091 -0.000114  0.001239  0.000023  0.000001 -0.000004  0.000582  0.000057  0.000035 -0.000020
                                 0.000002 -0.000017  0.000006  0.000003  0.001619 -0.000008 -0.000707 -0.000087 -0.000008 -0.000034
                                 0.001040  0.000066  0.000141  0.000019  0.000021 -0.000056  0.000078 -0.000033 -0.064920 -0.002555
                                 0.005031 -0.000502 -0.000022 -0.000079  0.001923  0.000071  0.000179 -0.000038 -0.000029 -0.000090
                                -0.000379  0.000115  0.993983  0.024792 -0.013648 -0.000077 -0.000062 -0.000047  0.001177  0.000064
                                 0.000282  0.000200  0.000063  0.000111  0.000782 -0.000348 -0.000029  0.000014 -0.000023 -0.000007
                                -0.000002 -0.000027  0.000021 -0.000022  0.000004  0.000001 -0.000056 -0.000115 -0.000057 -0.000009
                                 0.000023 -0.000028 -0.000167  0.000087 -0.000030  0.000138 -0.000509  0.002271  0.000098 -0.000142
                                 0.000531 -0.000538  0.002257  0.000335  0.000138 -0.000429

   5.1   +    -1.0893  -12.2491 -0.083420  0.161248  0.115757  0.081561  0.006098  0.006469  0.007316 -0.000173  0.001078 -0.006564
                                 0.001353  0.001177  0.008628  0.002338 -0.133120  0.258217  0.171631 -0.004099  0.011337 -0.038097
                                 0.010045  0.002545  0.000938 -0.001479  0.004301 -0.005980  0.014645 -0.003301 -0.138015  0.265125
                                 0.171659  0.011764 -0.010991  0.047779 -0.006723 -0.000696 -0.000131 -0.001489  0.002085 -0.003108
                                 0.014310 -0.003281 -0.094689  0.178538  0.127410 -0.083287 -0.002446 -0.014792 -0.007824  0.000113
                                -0.002955 -0.003330  0.000835  0.002859  0.009916 -0.001132  0.034197  0.005870  0.003187 -0.002498
                                -0.000706  0.034684  0.005741  0.002639  0.003049  0.000939  0.066345  0.011928 -0.002123  0.001265
                                -0.007402  0.070168  0.011622  0.002173 -0.001934  0.007444  0.047237  0.009881 -0.002509  0.001216
                                -0.004759  0.043811  0.006857 -0.003862 -0.001074  0.002873

   6.1   +    -1.0039  -11.6599 -0.129820  0.249901  0.194654  0.087297  0.003753  0.016163  0.005216  0.000722  0.002273 -0.009481
                                 0.001197  0.003434  0.010007  0.003106 -0.093056  0.179669  0.133764 -0.149424 -0.016640  0.013439
                                -0.022210 -0.003029  0.004691 -0.001952 -0.000089  0.005089  0.010138  0.000515  0.084538 -0.160931
                                -0.117693 -0.136201 -0.008038 -0.000070 -0.018327 -0.003089  0.003929  0.002282  0.000931 -0.007963
                                -0.007107  0.000638  0.122744 -0.231402 -0.179989  0.070724 -0.001190  0.023804  0.007640  0.000968
                                 0.000052  0.001193 -0.000693 -0.003852 -0.011036  0.002467  0.065641  0.016781  0.005492 -0.004694
                                -0.001067  0.067227  0.018447  0.004548  0.005576  0.002070  0.052253  0.013899 -0.003029  0.000896
                                -0.005164 -0.045466 -0.011277 -0.002566  0.001110 -0.004380 -0.067907 -0.016917  0.002927 -0.001665
                                 0.006393 -0.073449 -0.022046  0.005987  0.001695 -0.004611

   7.1   +    -0.8302  -10.7166 -0.105093  0.203743  0.206899 -0.070719 -0.010640  0.008760 -0.028483 -0.002649  0.004170 -0.007511
                                -0.000837  0.002632 -0.002277  0.002337  0.068782 -0.137027 -0.131890 -0.181778 -0.032454  0.055927
                                -0.045607 -0.006597  0.007515 -0.006109 -0.003597  0.009641 -0.000105  0.006063  0.073714 -0.147322
                                -0.129524  0.192075  0.017230 -0.026056  0.053479 -0.000103  0.002710 -0.008085 -0.001905  0.011267
                                -0.002188  0.004667 -0.112009  0.216059  0.198148  0.078788  0.006931 -0.002329  0.031639  0.004636
                                -0.000119  0.007309  0.000532 -0.000938  0.004236 -0.005271  0.100261  0.045953  0.005349 -0.006470
                                -0.001597  0.102558  0.048744  0.004070  0.007311  0.002714 -0.045699 -0.018636 -0.001119 -0.000722
                                 0.004764 -0.070161 -0.027208  0.000447  0.001741 -0.005819  0.104780  0.048341 -0.002150  0.002137
                                -0.008041  0.122356  0.055795 -0.006690 -0.002448  0.006955

   8.1   +    -0.7388  -10.0872  0.058083 -0.114297 -0.140995  0.164201  0.000459  0.047993  0.055829  0.005490  0.015393  0.006160
                                 0.001104  0.005427  0.007995 -0.001632 -0.080543  0.159279  0.161400  0.005161 -0.040924  0.139255
                                 0.004395 -0.019750  0.057362  0.004313 -0.001603  0.004338  0.002890 -0.003600  0.081243 -0.161075
                                -0.160124 -0.001577 -0.045506  0.171642 -0.000068 -0.016274  0.065944 -0.005246  0.001032 -0.006332
                                -0.002521  0.002966 -0.049558  0.097106  0.108301  0.117872 -0.023825  0.114882  0.036903 -0.006229
                                 0.031726  0.007838  0.001030 -0.004626 -0.000394 -0.004142 -0.103291 -0.063783 -0.003872  0.005896
                                 0.002402 -0.096124 -0.053270 -0.002226 -0.006497 -0.001375  0.143810  0.084095 -0.002362  0.001728
                                -0.010115 -0.165844 -0.092808 -0.003104  0.002773 -0.010591  0.126576  0.078666 -0.002176  0.002202
                                -0.007698  0.047166  0.024714 -0.000736 -0.001139  0.003697

   9.1   +    -0.6482  -10.2324  0.013890 -0.024630 -0.057708  0.279777  0.026806  0.015993  0.103448  0.010823  0.003039  0.002454
                                 0.002224  0.001441  0.013902 -0.001658 -0.021682  0.044209  0.014900 -0.243209 -0.009442 -0.035646
                                -0.073313 -0.002516 -0.010538 -0.001535 -0.001219  0.005393  0.002184  0.001855  0.019443 -0.041371
                                -0.026110 -0.045122  0.059268 -0.233836 -0.027062  0.019677 -0.084472  0.002731  0.000304  0.000656
                                -0.000989 -0.001216 -0.010269  0.019281  0.042603  0.181247  0.062184 -0.178126  0.062084  0.026148
                                -0.078062  0.004967  0.001515 -0.007641 -0.001578 -0.002643 -0.104812 -0.074177 -0.001855  0.006151
                                 0.001503 -0.107317 -0.075846 -0.000660 -0.006401 -0.001894 -0.034135 -0.029585 -0.003544 -0.000612
                                 0.001713  0.123246  0.086937  0.002115 -0.001441  0.005621 -0.058672 -0.038416  0.004239 -0.000433
                                 0.002156  0.164591  0.114023 -0.006039 -0.002080  0.006034

  10.1   +    -0.6077  -10.7359  0.000894 -0.004137  0.002664  0.058172 -0.048603  0.081011  0.026810 -0.012244  0.039647  0.002912
                                 0.001274  0.009760  0.001666 -0.000142  0.005040 -0.012715 -0.024570 -0.108950 -0.087382  0.251576
                                -0.023861 -0.041897  0.122593  0.002605 -0.003464  0.007578  0.000666 -0.000636 -0.010997  0.019815
                                 0.001453  0.338834  0.023862 -0.017821  0.087604  0.003998 -0.008059 -0.005373 -0.000507  0.009150
                                 0.001063  0.002049  0.004691 -0.009366 -0.023192 -0.290662  0.038215 -0.185134 -0.109317  0.021514
                                -0.080681 -0.015378 -0.000274  0.004680  0.007121  0.006246 -0.043389 -0.040632 -0.001483  0.001345
                                 0.001972 -0.000716  0.006290  0.000655 -0.000724  0.001442  0.130804  0.091132 -0.004592  0.000955
                                -0.006160 -0.028436 -0.026252  0.005461  0.000951 -0.002068 -0.173648 -0.128270 -0.000743 -0.002501
                                 0.008822 -0.049805 -0.042445 -0.002336  0.001260 -0.004466

  11.1   +    -0.5666   -9.2837 -0.004619  0.010418 -0.006093  0.020346  0.399017  0.086874 -0.001333  0.201464  0.034561  0.000927
                                -0.015259  0.000941  0.005793  0.000066  0.001040  0.000446 -0.016886 -0.075015  0.154660  0.017391
                                -0.049898  0.064926  0.034254 -0.006157 -0.011011 -0.003573  0.004281 -0.001450 -0.002251  0.003629
                                 0.030682  0.054965  0.058772  0.041107  0.004672  0.032295  0.031306 -0.001703 -0.002785  0.001582
                                 0.003423  0.004581 -0.003873  0.008116  0.003586 -0.072369  0.021336  0.025032 -0.025369  0.015018
                                 0.007869 -0.002251 -0.003865  0.002142  0.001107  0.000310  0.190868  0.158932  0.009966 -0.004783
                                -0.000791 -0.224856 -0.187839 -0.008452 -0.008258 -0.002561 -0.030944 -0.038514 -0.000834  0.002971
                                 0.002352 -0.023284 -0.020145  0.000579  0.001601 -0.000814 -0.000075  0.000407 -0.001124  0.000577
                                 0.000213 -0.037307 -0.033199  0.000588  0.001099 -0.001322

  12.1   +    -0.5563  -10.0744 -0.022412  0.050415  0.043483  0.266469 -0.048359 -0.049626  0.112130 -0.033488 -0.025433 -0.001691
                                 0.005340 -0.003987  0.010612 -0.000830  0.013440 -0.023174 -0.067716 -0.261515 -0.011526 -0.175934
                                -0.077499  0.005945 -0.098263 -0.016251  0.003570  0.005247  0.009857  0.008680 -0.010880  0.023477
                                 0.002233  0.148520 -0.018821  0.032021  0.058327 -0.009608 -0.004760 -0.008400 -0.002658  0.014851
                                 0.004134  0.002636 -0.012961  0.026332  0.023677 -0.213017 -0.078107  0.191516 -0.082933 -0.037932
                                 0.099941 -0.001471 -0.003321  0.016819 -0.000023  0.001894 -0.111646 -0.092710 -0.002059  0.005492
                                 0.000124 -0.028988 -0.029571  0.002505 -0.002360 -0.001543 -0.163683 -0.136590 -0.001113 -0.002624
                                 0.008036 -0.033518 -0.036061  0.000779  0.000207 -0.001663  0.095080  0.065926 -0.004765  0.000549
                                -0.003866 -0.185064 -0.155110  0.005356  0.001794 -0.005992

  13.1   +    -0.4978   -9.7334 -0.007081  0.018588  0.008191  0.043724  0.006654 -0.088971  0.016488 -0.008300 -0.050723 -0.003181
                                 0.000922 -0.008745  0.001757  0.000212 -0.026047  0.058004  0.058255  0.055671  0.050222 -0.227146
                                 0.007564  0.028129 -0.122725 -0.013134  0.004469 -0.001912  0.006944  0.005195  0.000207  0.003407
                                -0.013845  0.026091 -0.082961  0.294840  0.021169 -0.049163  0.178079 -0.022298  0.005900 -0.019232
                                 0.011781  0.006243 -0.013945  0.030454  0.017076 -0.040832  0.056089 -0.245268  0.007264  0.032381
                                -0.145960 -0.013511  0.007283 -0.020176  0.007266  0.003366 -0.010622 -0.004209 -0.000125  0.001053
                                -0.001629 -0.000863 -0.009254  0.000528  0.000070 -0.001824 -0.128846 -0.129547  0.002905 -0.001244
                                 0.004289 -0.225870 -0.196865 -0.002737  0.002027 -0.008160 -0.174820 -0.164209  0.002298 -0.001816
                                 0.005582  0.131987  0.107044 -0.005584 -0.001078  0.001951

  14.1   +    -0.4084  -10.0513 -0.001045  0.003357  0.003315  0.010664 -0.107857  0.046478  0.002685 -0.075463  0.056935  0.000401
                                 0.017519  0.005099 -0.003484  0.001187 -0.000843  0.002691  0.004843 -0.016687  0.180678  0.020222
                                -0.012603  0.145099  0.018577 -0.006975  0.014643 -0.003107 -0.002211 -0.006331 -0.001378  0.002747
                                 0.005223 -0.038893  0.347508  0.105942 -0.019422  0.252466  0.074723  0.004045  0.013312  0.001609
                                 0.002558  0.010500 -0.001334  0.003448  0.000155 -0.020383  0.292150  0.080649 -0.014407  0.223709
                                 0.059925 -0.001921 -0.022385 -0.005880  0.001840 -0.005597 -0.079030 -0.094757 -0.001932  0.001090
                                 0.001655  0.078099  0.090856  0.001523  0.001293  0.001970 -0.027461 -0.035039 -0.000776  0.003498
                                 0.001876 -0.004945 -0.008833 -0.000585  0.007512  0.001981  0.001405  0.003279 -0.000456  0.006488
                                 0.001829  0.001224  0.000549 -0.000583  0.006494  0.001742

  15.1   +    -0.2349   -9.3051 -0.002494  0.010164 -0.045781 -0.007349 -0.092111  0.336618 -0.053832 -0.057326  0.393100  0.002831
                                 0.030146  0.012439 -0.006201  0.003989 -0.000636  0.006570  0.022473 -0.034906  0.312057  0.033278
                                -0.107854  0.326268  0.053878 -0.013201 -0.000045 -0.031857  0.007751  0.000298 -0.023322  0.047164
                                 0.223598 -0.068658 -0.089443  0.029580  0.011552 -0.090688  0.034982  0.000324 -0.024524 -0.008470
                                 0.005008  0.003733  0.002957 -0.003296 -0.071414  0.038756 -0.218758 -0.050189  0.082606 -0.223295
                                -0.043765  0.000318  0.008519 -0.000844 -0.000826  0.003591 -0.083283 -0.190416 -0.000209 -0.000526
                                 0.009048  0.084202  0.171238 -0.000241 -0.000540  0.008815 -0.096225 -0.178559 -0.004491  0.006564
                                 0.004297 -0.009536 -0.056869 -0.000835 -0.001611 -0.000603  0.000039 -0.031462  0.001004 -0.005299
                                -0.001942  0.008851  0.008401  0.000471 -0.005903 -0.001377

 ELECTRON ORBITALS FOR NEGATIVE SPIN
 ===================================


   Orb  Occ    Energy  Couls-En    Coefficients

                                   1 1s      1 1s      1 1s      1 2px     1 2py     1 2pz     1 2px     1 2py     1 2pz     1 3d0  
                                   1 3d2-    1 3d1+    1 3d2+    1 3d1-    2 1s      2 1s      2 1s      2 2px     2 2py     2 2pz  
                                   2 2px     2 2py     2 2pz     2 3d0     2 3d2-    2 3d1+    2 3d2+    2 3d1-    3 1s      3 1s   
                                   3 1s      3 2px     3 2py     3 2pz     3 2px     3 2py     3 2pz     3 3d0     3 3d2-    3 3d1+ 
                                   3 3d2+    3 3d1-    4 1s      4 1s      4 1s      4 2px     4 2py     4 2pz     4 2px     4 2py  
                                   4 2pz     4 3d0     4 3d2-    4 3d1+    4 3d2+    4 3d1-    5 1s      5 1s      5 2px     5 2py  
                                   5 2pz     6 1s      6 1s      6 2px     6 2py     6 2pz     7 1s      7 1s      7 2px     7 2py  
                                   7 2pz     8 1s      8 1s      8 2px     8 2py     8 2pz     9 1s      9 1s      9 2px     9 2py  
                                   9 2pz    10 1s     10 1s     10 2px    10 2py    10 2pz  

   1.1   -   -11.2506  -35.2894  0.990425  0.024073 -0.011597  0.000112 -0.000039  0.000106 -0.000250  0.000066 -0.000304 -0.000758
                                 0.000036  0.000106  0.000408  0.000210  0.105810  0.002048 -0.000239  0.000595  0.000070  0.000047
                                -0.002019 -0.000326  0.000674  0.000179 -0.000063 -0.000068 -0.000271  0.000050  0.002460 -0.000153
                                 0.000053  0.000215  0.000031 -0.000006 -0.002725 -0.000324  0.000411  0.000064 -0.000002 -0.000030
                                -0.000031 -0.000018  0.000037 -0.000153  0.002309 -0.000067 -0.000008  0.000012 -0.000953  0.000129
                                -0.000694  0.000008  0.000001  0.000020  0.000060 -0.000022 -0.000459  0.002145 -0.000299  0.000511
                                 0.000087 -0.000455  0.002158 -0.000196 -0.000562 -0.000081 -0.000149  0.000660 -0.000107 -0.000005
                                -0.000044 -0.000170  0.000107  0.000128  0.000017 -0.000019 -0.000005  0.000210  0.000022  0.000001
                                 0.000001 -0.000101 -0.000104  0.000025 -0.000002  0.000012

   2.1   -   -11.2433  -36.5751 -0.106220 -0.003419  0.006118 -0.000660 -0.000020 -0.000162  0.002963  0.000281  0.000012  0.000207
                                -0.000016 -0.000254 -0.000399  0.000063  0.988841  0.024799 -0.015420 -0.000425 -0.000070  0.000045
                                 0.001801 -0.000107  0.001282 -0.000075  0.000153 -0.000085  0.000788 -0.000244  0.056479  0.000785
                                 0.001729  0.000350  0.000095 -0.000212 -0.002528 -0.000155 -0.000084 -0.000114 -0.000165  0.000427
                                -0.000228  0.000153  0.002022 -0.000180  0.001679  0.000066  0.000017 -0.000032 -0.000798 -0.000086
                                 0.000059  0.000055 -0.000004  0.000030  0.000042 -0.000038 -0.000121  0.000325  0.000015 -0.000125
                                -0.000015 -0.000122  0.000331 -0.000006  0.000118  0.000036 -0.000356  0.001635  0.000153 -0.000150
                                 0.000519 -0.000234 -0.000292  0.000029  0.000004  0.000000 -0.000099 -0.000151  0.000047 -0.000002
                                 0.000020 -0.000010  0.000232 -0.000006 -0.000002  0.000008

   3.1   -   -11.2358  -36.5747  0.003572 -0.000001  0.000548  0.000004 -0.000010  0.000073  0.000189 -0.000060  0.000177  0.000031
                                 0.000004  0.000085  0.000071 -0.000021 -0.056640 -0.002097  0.005116 -0.000279 -0.000019  0.000248
                                 0.002516  0.000462 -0.000999 -0.000120 -0.000134  0.000446 -0.000317  0.000157  0.992376  0.024923
                                -0.015874 -0.000127 -0.000082  0.000144  0.000082  0.000550 -0.002271  0.000088  0.000085  0.000103
                                 0.000717 -0.000262  0.064343  0.000598  0.004268  0.000426  0.000037  0.000097 -0.002234 -0.000288
                                 0.000494 -0.000046 -0.000017 -0.000147 -0.000250  0.000066  0.000019  0.000012  0.000010 -0.000011
                                -0.000002  0.000012 -0.000020  0.000002  0.000008  0.000003 -0.000154 -0.000263 -0.000052  0.000007
                                -0.000039 -0.000485  0.001688 -0.000113  0.000132 -0.000478 -0.000176 -0.000261 -0.000043  0.000013
                                -0.000057 -0.000031  0.000519 -0.000069 -0.000006  0.000005

   4.1   -   -11.2221  -35.3648 -0.000091 -0.000114  0.001239  0.000023  0.000001 -0.000004  0.000582  0.000057  0.000035 -0.000020
                                 0.000002 -0.000017  0.000006  0.000003  0.001619 -0.000008 -0.000707 -0.000087 -0.000008 -0.000034
                                 0.001040  0.000066  0.000141  0.000019  0.000021 -0.000056  0.000078 -0.000033 -0.064920 -0.002555
                                 0.005031 -0.000502 -0.000022 -0.000079  0.001923  0.000071  0.000179 -0.000038 -0.000029 -0.000090
                                -0.000379  0.000115  0.993983  0.024792 -0.013648 -0.000077 -0.000062 -0.000047  0.001177  0.000064
                                 0.000282  0.000200  0.000063  0.000111  0.000782 -0.000348 -0.000029  0.000014 -0.000023 -0.000007
                                -0.000002 -0.000027  0.000021 -0.000022  0.000004  0.000001 -0.000056 -0.000115 -0.000057 -0.000009
                                 0.000023 -0.000028 -0.000167  0.000087 -0.000030  0.000138 -0.000509  0.002271  0.000098 -0.000142
                                 0.000531 -0.000538  0.002257  0.000335  0.000138 -0.000429

   5.1   -    -1.0893  -12.2491 -0.083420  0.161248  0.115757  0.081561  0.006098  0.006469  0.007316 -0.000173  0.001078 -0.006564
                                 0.001353  0.001177  0.008628  0.002338 -0.133120  0.258217  0.171631 -0.004099  0.011337 -0.038097
                                 0.010045  0.002545  0.000938 -0.001479  0.004301 -0.005980  0.014645 -0.003301 -0.138015  0.265125
                                 0.171659  0.011764 -0.010991  0.047779 -0.006723 -0.000696 -0.000131 -0.001489  0.002085 -0.003108
                                 0.014310 -0.003281 -0.094689  0.178538  0.127410 -0.083287 -0.002446 -0.014792 -0.007824  0.000113
                                -0.002955 -0.003330  0.000835  0.002859  0.009916 -0.001132  0.034197  0.005870  0.003187 -0.002498
                                -0.000706  0.034684  0.005741  0.002639  0.003049  0.000939  0.066345  0.011928 -0.002123  0.001265
                                -0.007402  0.070168  0.011622  0.002173 -0.001934  0.007444  0.047237  0.009881 -0.002509  0.001216
                                -0.004759  0.043811  0.006857 -0.003862 -0.001074  0.002873

   6.1   -    -1.0039  -11.6599 -0.129820  0.249901  0.194654  0.087297  0.003753  0.016163  0.005216  0.000722  0.002273 -0.009481
                                 0.001197  0.003434  0.010007  0.003106 -0.093056  0.179669  0.133764 -0.149424 -0.016640  0.013439
                                -0.022210 -0.003029  0.004691 -0.001952 -0.000089  0.005089  0.010138  0.000515  0.084538 -0.160931
                                -0.117693 -0.136201 -0.008038 -0.000070 -0.018327 -0.003089  0.003929  0.002282  0.000931 -0.007963
                                -0.007107  0.000638  0.122744 -0.231402 -0.179989  0.070724 -0.001190  0.023804  0.007640  0.000968
                                 0.000052  0.001193 -0.000693 -0.003852 -0.011036  0.002467  0.065641  0.016781  0.005492 -0.004694
                                -0.001067  0.067227  0.018447  0.004548  0.005576  0.002070  0.052253  0.013899 -0.003029  0.000896
                                -0.005164 -0.045466 -0.011277 -0.002566  0.001110 -0.004380 -0.067907 -0.016917  0.002927 -0.001665
                                 0.006393 -0.073449 -0.022046  0.005987  0.001695 -0.004611

   7.1   -    -0.8302  -10.7166 -0.105093  0.203743  0.206899 -0.070719 -0.010640  0.008760 -0.028483 -0.002649  0.004170 -0.007511
                                -0.000837  0.002632 -0.002277  0.002337  0.068782 -0.137027 -0.131890 -0.181778 -0.032454  0.055927
                                -0.045607 -0.006597  0.007515 -0.006109 -0.003597  0.009641 -0.000105  0.006063  0.073714 -0.147322
                                -0.129524  0.192075  0.017230 -0.026056  0.053479 -0.000103  0.002710 -0.008085 -0.001905  0.011267
                                -0.002188  0.004667 -0.112009  0.216059  0.198148  0.078788  0.006931 -0.002329  0.031639  0.004636
                                -0.000119  0.007309  0.000532 -0.000938  0.004236 -0.005271  0.100261  0.045953  0.005349 -0.006470
                                -0.001597  0.102558  0.048744  0.004070  0.007311  0.002714 -0.045699 -0.018636 -0.001119 -0.000722
                                 0.004764 -0.070161 -0.027208  0.000447  0.001741 -0.005819  0.104780  0.048341 -0.002150  0.002137
                                -0.008041  0.122356  0.055795 -0.006690 -0.002448  0.006955

   8.1   -    -0.7388  -10.0872  0.058083 -0.114297 -0.140995  0.164201  0.000459  0.047993  0.055829  0.005490  0.015393  0.006160
                                 0.001104  0.005427  0.007995 -0.001632 -0.080543  0.159279  0.161400  0.005161 -0.040924  0.139255
                                 0.004395 -0.019750  0.057362  0.004313 -0.001603  0.004338  0.002890 -0.003600  0.081243 -0.161075
                                -0.160124 -0.001577 -0.045506  0.171642 -0.000068 -0.016274  0.065944 -0.005246  0.001032 -0.006332
                                -0.002521  0.002966 -0.049558  0.097106  0.108301  0.117872 -0.023825  0.114882  0.036903 -0.006229
                                 0.031726  0.007838  0.001030 -0.004626 -0.000394 -0.004142 -0.103291 -0.063783 -0.003872  0.005896
                                 0.002402 -0.096124 -0.053270 -0.002226 -0.006497 -0.001375  0.143810  0.084095 -0.002362  0.001728
                                -0.010115 -0.165844 -0.092808 -0.003104  0.002773 -0.010591  0.126576  0.078666 -0.002176  0.002202
                                -0.007698  0.047166  0.024714 -0.000736 -0.001139  0.003697

   9.1   -    -0.6482  -10.2324  0.013890 -0.024630 -0.057708  0.279777  0.026806  0.015993  0.103448  0.010823  0.003039  0.002454
                                 0.002224  0.001441  0.013902 -0.001658 -0.021682  0.044209  0.014900 -0.243209 -0.009442 -0.035646
                                -0.073313 -0.002516 -0.010538 -0.001535 -0.001219  0.005393  0.002184  0.001855  0.019443 -0.041371
                                -0.026110 -0.045122  0.059268 -0.233836 -0.027062  0.019677 -0.084472  0.002731  0.000304  0.000656
                                -0.000989 -0.001216 -0.010269  0.019281  0.042603  0.181247  0.062184 -0.178126  0.062084  0.026148
                                -0.078062  0.004967  0.001515 -0.007641 -0.001578 -0.002643 -0.104812 -0.074177 -0.001855  0.006151
                                 0.001503 -0.107317 -0.075846 -0.000660 -0.006401 -0.001894 -0.034135 -0.029585 -0.003544 -0.000612
                                 0.001713  0.123246  0.086937  0.002115 -0.001441  0.005621 -0.058672 -0.038416  0.004239 -0.000433
                                 0.002156  0.164591  0.114023 -0.006039 -0.002080  0.006034

  10.1   -    -0.6077  -10.7359  0.000894 -0.004137  0.002664  0.058172 -0.048603  0.081011  0.026810 -0.012244  0.039647  0.002912
                                 0.001274  0.009760  0.001666 -0.000142  0.005040 -0.012715 -0.024570 -0.108950 -0.087382  0.251576
                                -0.023861 -0.041897  0.122593  0.002605 -0.003464  0.007578  0.000666 -0.000636 -0.010997  0.019815
                                 0.001453  0.338834  0.023862 -0.017821  0.087604  0.003998 -0.008059 -0.005373 -0.000507  0.009150
                                 0.001063  0.002049  0.004691 -0.009366 -0.023192 -0.290662  0.038215 -0.185134 -0.109317  0.021514
                                -0.080681 -0.015378 -0.000274  0.004680  0.007121  0.006246 -0.043389 -0.040632 -0.001483  0.001345
                                 0.001972 -0.000716  0.006290  0.000655 -0.000724  0.001442  0.130804  0.091132 -0.004592  0.000955
                                -0.006160 -0.028436 -0.026252  0.005461  0.000951 -0.002068 -0.173648 -0.128270 -0.000743 -0.002501
                                 0.008822 -0.049805 -0.042445 -0.002336  0.001260 -0.004466

  11.1   -    -0.5666   -9.2837 -0.004619  0.010418 -0.006093  0.020346  0.399017  0.086874 -0.001333  0.201464  0.034561  0.000927
                                -0.015259  0.000941  0.005793  0.000066  0.001040  0.000446 -0.016886 -0.075015  0.154660  0.017391
                                -0.049898  0.064926  0.034254 -0.006157 -0.011011 -0.003573  0.004281 -0.001450 -0.002251  0.003629
                                 0.030682  0.054965  0.058772  0.041107  0.004672  0.032295  0.031306 -0.001703 -0.002785  0.001582
                                 0.003423  0.004581 -0.003873  0.008116  0.003586 -0.072369  0.021336  0.025032 -0.025369  0.015018
                                 0.007869 -0.002251 -0.003865  0.002142  0.001107  0.000310  0.190868  0.158932  0.009966 -0.004783
                                -0.000791 -0.224856 -0.187839 -0.008452 -0.008258 -0.002561 -0.030944 -0.038514 -0.000834  0.002971
                                 0.002352 -0.023284 -0.020145  0.000579  0.001601 -0.000814 -0.000075  0.000407 -0.001124  0.000577
                                 0.000213 -0.037307 -0.033199  0.000588  0.001099 -0.001322

  12.1   -    -0.5563  -10.0744 -0.022412  0.050415  0.043483  0.266469 -0.048359 -0.049626  0.112130 -0.033488 -0.025433 -0.001691
                                 0.005340 -0.003987  0.010612 -0.000830  0.013440 -0.023174 -0.067716 -0.261515 -0.011526 -0.175934
                                -0.077499  0.005945 -0.098263 -0.016251  0.003570  0.005247  0.009857  0.008680 -0.010880  0.023477
                                 0.002233  0.148520 -0.018821  0.032021  0.058327 -0.009608 -0.004760 -0.008400 -0.002658  0.014851
                                 0.004134  0.002636 -0.012961  0.026332  0.023677 -0.213017 -0.078107  0.191516 -0.082933 -0.037932
                                 0.099941 -0.001471 -0.003321  0.016819 -0.000023  0.001894 -0.111646 -0.092710 -0.002059  0.005492
                                 0.000124 -0.028988 -0.029571  0.002505 -0.002360 -0.001543 -0.163683 -0.136590 -0.001113 -0.002624
                                 0.008036 -0.033518 -0.036061  0.000779  0.000207 -0.001663  0.095080  0.065926 -0.004765  0.000549
                                -0.003866 -0.185064 -0.155110  0.005356  0.001794 -0.005992

  13.1   -    -0.4978   -9.7334 -0.007081  0.018588  0.008191  0.043724  0.006654 -0.088971  0.016488 -0.008300 -0.050723 -0.003181
                                 0.000922 -0.008745  0.001757  0.000212 -0.026047  0.058004  0.058255  0.055671  0.050222 -0.227146
                                 0.007564  0.028129 -0.122725 -0.013134  0.004469 -0.001912  0.006944  0.005195  0.000207  0.003407
                                -0.013845  0.026091 -0.082961  0.294840  0.021169 -0.049163  0.178079 -0.022298  0.005900 -0.019232
                                 0.011781  0.006243 -0.013945  0.030454  0.017076 -0.040832  0.056089 -0.245268  0.007264  0.032381
                                -0.145960 -0.013511  0.007283 -0.020176  0.007266  0.003366 -0.010622 -0.004209 -0.000125  0.001053
                                -0.001629 -0.000863 -0.009254  0.000528  0.000070 -0.001824 -0.128846 -0.129547  0.002905 -0.001244
                                 0.004289 -0.225870 -0.196865 -0.002737  0.002027 -0.008160 -0.174820 -0.164209  0.002298 -0.001816
                                 0.005582  0.131987  0.107044 -0.005584 -0.001078  0.001951

  14.1   -    -0.4084  -10.0513 -0.001045  0.003357  0.003315  0.010664 -0.107857  0.046478  0.002685 -0.075463  0.056935  0.000401
                                 0.017519  0.005099 -0.003484  0.001187 -0.000843  0.002691  0.004843 -0.016687  0.180678  0.020222
                                -0.012603  0.145099  0.018577 -0.006975  0.014643 -0.003107 -0.002211 -0.006331 -0.001378  0.002747
                                 0.005223 -0.038893  0.347508  0.105942 -0.019422  0.252466  0.074723  0.004045  0.013312  0.001609
                                 0.002558  0.010500 -0.001334  0.003448  0.000155 -0.020383  0.292150  0.080649 -0.014407  0.223709
                                 0.059925 -0.001921 -0.022385 -0.005880  0.001840 -0.005597 -0.079030 -0.094757 -0.001932  0.001090
                                 0.001655  0.078099  0.090856  0.001523  0.001293  0.001970 -0.027461 -0.035039 -0.000776  0.003498
                                 0.001876 -0.004945 -0.008833 -0.000585  0.007512  0.001981  0.001405  0.003279 -0.000456  0.006488
                                 0.001829  0.001224  0.000549 -0.000583  0.006494  0.001742

  15.1   -    -0.2349   -9.3051 -0.002494  0.010164 -0.045781 -0.007349 -0.092111  0.336618 -0.053832 -0.057326  0.393100  0.002831
                                 0.030146  0.012439 -0.006201  0.003989 -0.000636  0.006570  0.022473 -0.034906  0.312057  0.033278
                                -0.107854  0.326268  0.053878 -0.013201 -0.000045 -0.031857  0.007751  0.000298 -0.023322  0.047164
                                 0.223598 -0.068658 -0.089443  0.029580  0.011552 -0.090688  0.034982  0.000324 -0.024524 -0.008470
                                 0.005008  0.003733  0.002957 -0.003296 -0.071414  0.038756 -0.218758 -0.050189  0.082606 -0.223295
                                -0.043765  0.000318  0.008519 -0.000844 -0.000826  0.003591 -0.083283 -0.190416 -0.000209 -0.000526
                                 0.009048  0.084202  0.171238 -0.000241 -0.000540  0.008815 -0.096225 -0.178559 -0.004491  0.006564
                                 0.004297 -0.009536 -0.056869 -0.000835 -0.001611 -0.000603  0.000039 -0.031462  0.001004 -0.005299
                                -0.001942  0.008851  0.008401  0.000471 -0.005903 -0.001377

 EXPECTATION VALUE OF S**2:             0.00000000


 Natural orbitals saved to record    2200.2 (Orbital set 3)

 Orbital spaces for UNO-CAS (Min. occupation: 0.020  Max. occupation: 1.980):

 Closed:       15
 Active:        0


 **********************************************************************************************************************************
 DATASETS  * FILE   NREC   LENGTH (MB)   RECORD NAMES
              1      20       25.78       701      600      500      702      960      900      950      970     1000     1100   
                                         GEOM    BASINP     VAR     GEOM    ABASIS   SYMINP    ZMAT    AOBASIS   BASIS      S 
                                         1400     1410     1200     1210     1080     1600      129     1650     1300     1700   
                                           T        V       H0       H01     AOSYM     SMH      P2S    MOLCAS    ERIS     OPER   

              2       8        1.58       500      600      700     1000     2200     2140      701      702   
                                          VAR    BASINP    GEOM     BASIS     UHF     MCSCF    GEOM     GEOM   

 PROGRAMS   *        TOTAL   UHF-SCF       INT   RESTART
 CPU TIMES  *         4.09      1.64      2.39      0.00
 REAL TIME  *         8.27 SEC
 DISK USED  *       103.01 MB
 **********************************************************************************************************************************

1PROGRAM * MULTI (Direct Multiconfiguration SCF)       Authors: P.J. Knowles, H.-J. Werner (1984)     S.T. Elbert (1988)


 Number of closed-shell orbitals: 13 ( 13 )
 Number of active  orbitals:       4 (  4 )
 Number of external orbitals:     69 ( 69 )

 State symmetry 1

 Number of electrons:  4    Spin symmetry=Singlet     Space symmetry=1
 Number of states:     4
 Number of CSFs:      20

 Iteration controls:
             1  2  3  4  5  6  7  8  9 10 11 12 13 14 15 16 17 18 19 20 21 22 23 24 25 26 27 28 29 30 31 32 33 34 35 36 37 38 39
 DIAGCI      T  F  F  F  F  F  F  F  F  F  F  F  F  F  F  F  F  F  F  F  F  F  F  F  F  F  F  F  F  F  F  F  F  F  F  F  F  F  F
 WERNER      T  T  T  T  T  T  T  T  T  T  T  T  T  T  T  T  T  T  T  T  T  T  T  T  T  T  T  T  T  T  T  T  T  T  T  T  T  T  T
 INTERNAL    F  T  T  T  T  T  T  T  T  T  T  T  T  T  T  T  T  T  T  T  T  T  T  T  T  T  T  T  T  T  T  T  T  T  T  T  T  T  T

 Storage for configuration lists     45, coupling coefficients     29, address lists    334

 Molecular orbitals read from record     2140.2  Type=MCSCF/NATURAL (state averaged)

 Wavefunction dump at record             2140.2

 Convergence thresholds  0.10E-01 (gradient)  0.10E-05 (energy)  0.10E-02 (step length)

 Weight factors for state symmetry  1:    0.25000   0.25000   0.25000   0.25000

 Eigenvalues of redundancy matrix
   1-  6    0.000000    0.000000    0.000000    0.000000    0.000000    0.000000

 Number of orbital rotations     1225     (  52 Core/Active  897 Core/Virtual   0 Active/Active  276 Active/Virtual)
 Total number of variables   =   1305


 ITER. MIC  NCI  NEG     ENERGY(VAR)     ENERGY(PROJ)   ENERGY CHANGE     GRAD(0)  GRAD(ORB)   GRAD(CI)     STEP       TIME

   1   23   10    0    -154.74574285    -154.74574299   -0.00000013    0.00056505 0.00000010 0.00000037  0.27D-03      2.90

 ** WVFN ****  CONVERGENCE REACHED, FINAL GRADIENT:  0.90D-07

 SOLVING CP-MCSCF EQUATIONS FOR STATE  4.1

 REQUESTED ACCURACY OF CP-SOLUTION:    0.10D-06

 CONVERGENCE REACHED IN  47 ITERATIONS ( 0 RESTARTS, 47 EXPANSION VECTORS), ACCURACY=  0.48D-07

 SA-Gradient information saved on record      5100.1

 SOLVING CP-MCSCF EQUATIONS FOR STATE  3.1

 REQUESTED ACCURACY OF CP-SOLUTION:    0.10D-06

 CONVERGENCE REACHED IN  47 ITERATIONS ( 0 RESTARTS, 47 EXPANSION VECTORS), ACCURACY=  0.49D-07

 SA-Gradient information saved on record      5101.1

 SOLVING CP-MCSCF EQUATIONS FOR STATE  2.1

 REQUESTED ACCURACY OF CP-SOLUTION:    0.10D-06

 CONVERGENCE REACHED IN  47 ITERATIONS ( 0 RESTARTS, 47 EXPANSION VECTORS), ACCURACY=  0.47D-07

 SA-Gradient information saved on record      5102.1


 First order charge density matrix for state 1.1 saved on record  2140.2 (density set 1)
 First order charge density matrix for state 2.1 saved on record  2140.2 (density set 2)
 First order charge density matrix for state 3.1 saved on record  2140.2 (density set 3)
 First order charge density matrix for state 4.1 saved on record  2140.2 (density set 4)

 Results for state 1.1
 ---------------------

 !MC STATE 1.1 ENERGY                -154.84635941
 Nuclear energy                       103.18087456
 Kinetic energy                       154.92629577
 One electron energy                 -411.65979160
 Two electron energy                  153.63255763
 Virial ratio                           1.99948404

 !MC STATE 1.1 DIPOLE MOMENTS:          0.02220364    -0.00757406     0.02740369 a.u.      0.056432   -0.019250    0.069649 Debye

 Results for state 2.1
 ---------------------

 !MC STATE 2.1 ENERGY                -154.71413291
 Nuclear energy                       103.18087456
 Kinetic energy                       154.92325876
 One electron energy                 -411.62170353
 Two electron energy                  153.72669606
 Virial ratio                           1.99865013

 !MC STATE 2.1 DIPOLE MOMENTS:          0.12488221     0.00303789     0.01916783 a.u.      0.317398    0.007721    0.048717 Debye

 Results for state 3.1
 ---------------------

 !MC STATE 3.1 ENERGY                -154.71231816
 Nuclear energy                       103.18087456
 Kinetic energy                       155.21027642
 One electron energy                 -411.48896719
 Two electron energy                  153.59577447
 Virial ratio                           1.99679172

 !MC STATE 3.1 DIPOLE MOMENTS:          0.15164188     0.01907017    -0.04157377 a.u.      0.385410    0.048468   -0.105663 Debye

 Results for state 4.1
 ---------------------

 !MC STATE 4.1 ENERGY                -154.71016147
 Nuclear energy                       103.18087456
 Kinetic energy                       154.92321219
 One electron energy                 -411.67643030
 Two electron energy                  153.78539427
 Virial ratio                           1.99862480

 !MC STATE 4.1 DIPOLE MOMENTS:         -0.07265620    -0.01557765     0.02072016 a.u.     -0.184662   -0.039592    0.052662 Debye

 State-averaged charge density matrix saved on record  2140.2 (density set 5)

 !MC EXPECT. VALUE <1.1|DMX|1.1>        0.02220364  A.U.              0.05643232  DEBYE
 !MC MATR. ELEMENT <2.1|DMX|1.1>        0.00418557  A.U.              0.01063795  DEBYE
 !MC EXPECT. VALUE <2.1|DMX|2.1>        0.12488221  A.U.              0.31739812  DEBYE
 !MC MATR. ELEMENT <3.1|DMX|1.1>       -0.12558225  A.U.             -0.31917732  DEBYE
 !MC MATR. ELEMENT <3.1|DMX|2.1>       -0.01728879  A.U.             -0.04394085  DEBYE
 !MC EXPECT. VALUE <3.1|DMX|3.1>        0.15164188  A.U.              0.38540996  DEBYE
 !MC MATR. ELEMENT <4.1|DMX|1.1>       -0.00834048  A.U.             -0.02119799  DEBYE
 !MC MATR. ELEMENT <4.1|DMX|2.1>        2.14343414  A.U.              5.44770934  DEBYE
 !MC MATR. ELEMENT <4.1|DMX|3.1>        0.00223189  A.U.              0.00567252  DEBYE
 !MC EXPECT. VALUE <4.1|DMX|4.1>       -0.07265620  A.U.             -0.18466154  DEBYE

 !MC EXPECT. VALUE <1.1|DMY|1.1>       -0.00757406  A.U.             -0.01925007  DEBYE
 !MC MATR. ELEMENT <2.1|DMY|1.1>       -0.00570598  A.U.             -0.01450220  DEBYE
 !MC EXPECT. VALUE <2.1|DMY|2.1>        0.00303789  A.U.              0.00772105  DEBYE
 !MC MATR. ELEMENT <3.1|DMY|1.1>       -0.01631240  A.U.             -0.04145927  DEBYE
 !MC MATR. ELEMENT <3.1|DMY|2.1>        0.04360115  A.U.              0.11081581  DEBYE
 !MC EXPECT. VALUE <3.1|DMY|3.1>        0.01907017  A.U.              0.04846835  DEBYE
 !MC MATR. ELEMENT <4.1|DMY|1.1>        0.05456061  A.U.              0.13867015  DEBYE
 !MC MATR. ELEMENT <4.1|DMY|2.1>        0.20779065  A.U.              0.52811656  DEBYE
 !MC MATR. ELEMENT <4.1|DMY|3.1>        0.02621539  A.U.              0.06662852  DEBYE
 !MC EXPECT. VALUE <4.1|DMY|4.1>       -0.01557765  A.U.             -0.03959184  DEBYE

 !MC EXPECT. VALUE <1.1|DMZ|1.1>        0.02740369  A.U.              0.06964866  DEBYE
 !MC MATR. ELEMENT <2.1|DMZ|1.1>       -0.00124302  A.U.             -0.00315923  DEBYE
 !MC EXPECT. VALUE <2.1|DMZ|2.1>        0.01916783  A.U.              0.04871657  DEBYE
 !MC MATR. ELEMENT <3.1|DMZ|1.1>        0.02543153  A.U.              0.06463627  DEBYE
 !MC MATR. ELEMENT <3.1|DMZ|2.1>        0.01383485  A.U.              0.03516237  DEBYE
 !MC EXPECT. VALUE <3.1|DMZ|3.1>       -0.04157377  A.U.             -0.10566306  DEBYE
 !MC MATR. ELEMENT <4.1|DMZ|1.1>        0.01292449  A.U.              0.03284863  DEBYE
 !MC MATR. ELEMENT <4.1|DMZ|2.1>       -0.03384205  A.U.             -0.08601227  DEBYE
 !MC MATR. ELEMENT <4.1|DMZ|3.1>        0.00607456  A.U.              0.01543899  DEBYE
 !MC EXPECT. VALUE <4.1|DMZ|4.1>        0.02072016  A.U.              0.05266196  DEBYE


 NATURAL ORBITALS                                        
 ----------------                                        

   Orb     Occ        Energy       Coefficients

                                   1 1s      1 1s      1 1s      1 2px     1 2py     1 2pz     1 2px     1 2py     1 2pz     1 3d0  
                                   1 3d2-    1 3d1+    1 3d2+    1 3d1-    2 1s      2 1s      2 1s      2 2px     2 2py     2 2pz  
                                   2 2px     2 2py     2 2pz     2 3d0     2 3d2-    2 3d1+    2 3d2+    2 3d1-    3 1s      3 1s   
                                   3 1s      3 2px     3 2py     3 2pz     3 2px     3 2py     3 2pz     3 3d0     3 3d2-    3 3d1+ 
                                   3 3d2+    3 3d1-    4 1s      4 1s      4 1s      4 2px     4 2py     4 2pz     4 2px     4 2py  
                                   4 2pz     4 3d0     4 3d2-    4 3d1+    4 3d2+    4 3d1-    5 1s      5 1s      5 2px     5 2py  
                                   5 2pz     6 1s      6 1s      6 2px     6 2py     6 2pz     7 1s      7 1s      7 2px     7 2py  
                                   7 2pz     8 1s      8 1s      8 2px     8 2py     8 2pz     9 1s      9 1s      9 2px     9 2py  
                                   9 2pz    10 1s     10 1s     10 2px    10 2py    10 2pz  

   1.1  2.00000   -11.243393     0.954684  0.023069 -0.010283  0.000001 -0.000017  0.000069  0.000293  0.000106 -0.000308 -0.000700
                                 0.000037  0.000060  0.000331  0.000217  0.283734  0.006519 -0.003064  0.000523  0.000032  0.000051
                                -0.001662 -0.000345  0.000899  0.000147 -0.000013 -0.000074 -0.000139 -0.000036  0.007862 -0.000127
                                 0.000427  0.000280  0.000037 -0.000048 -0.003145 -0.000335  0.000396  0.000039 -0.000023  0.000050
                                -0.000079  0.000004  0.000154 -0.000185  0.002564 -0.000057 -0.000006  0.000005 -0.001076  0.000104
                                -0.000675  0.000019  0.000003  0.000027  0.000068 -0.000026 -0.000476  0.002172 -0.000294  0.000474
                                 0.000119 -0.000468  0.002177 -0.000191 -0.000520 -0.000108 -0.000209  0.000953 -0.000078 -0.000023
                                 0.000054 -0.000208  0.000044  0.000132  0.000016 -0.000017 -0.000023  0.000180  0.000031  0.000001
                                 0.000006 -0.000101 -0.000063  0.000023 -0.000002  0.000014

   2.1  2.00000   -11.240605     0.284258  0.007730 -0.008092  0.000667  0.000022  0.000177 -0.002952 -0.000253 -0.000063 -0.000308
                                 0.000030  0.000264  0.000478  0.000039 -0.954134 -0.024040  0.015198  0.000494  0.000080 -0.000039
                                -0.002069  0.000029 -0.001155  0.000077 -0.000176  0.000082 -0.000841  0.000190 -0.035614 -0.000321
                                -0.001998 -0.000315 -0.000068  0.000214  0.001982  0.000116  0.000116  0.000133  0.000140 -0.000432
                                 0.000241 -0.000145 -0.000880  0.000159 -0.001138 -0.000072 -0.000014  0.000036  0.000567  0.000103
                                -0.000181 -0.000055  0.000002 -0.000029 -0.000035  0.000035  0.000033  0.000065 -0.000070  0.000212
                                 0.000039  0.000038  0.000071 -0.000029 -0.000216 -0.000059  0.000323 -0.001496 -0.000168  0.000115
                                -0.000529  0.000189  0.000338 -0.000007  0.000001 -0.000012  0.000094  0.000183 -0.000043  0.000004
                                -0.000020 -0.000010 -0.000241  0.000009  0.000001 -0.000005

   3.1  2.00000   -11.229014     0.002616 -0.000036  0.000787 -0.000003 -0.000013  0.000079  0.000298 -0.000051  0.000210  0.000033
                                 0.000000  0.000079  0.000063 -0.000019 -0.036575 -0.001594  0.004796 -0.000285 -0.000072  0.000224
                                 0.002737  0.000459 -0.000935 -0.000116 -0.000148  0.000425 -0.000288  0.000164  0.993563  0.025174
                                -0.016106  0.000074 -0.000004  0.000194 -0.000154  0.000552 -0.002418  0.000066  0.000069  0.000122
                                 0.000717 -0.000240  0.060063  0.000470  0.004479  0.000474  0.000020  0.000107 -0.002289 -0.000284
                                 0.000497 -0.000009 -0.000005 -0.000172 -0.000279  0.000066  0.000013  0.000021  0.000008 -0.000011
                                -0.000003  0.000007 -0.000007  0.000001  0.000011  0.000002 -0.000174 -0.000272 -0.000054  0.000001
                                -0.000027 -0.000496  0.001634 -0.000107  0.000134 -0.000479 -0.000181 -0.000271 -0.000041  0.000012
                                -0.000058 -0.000038  0.000526 -0.000067 -0.000007  0.000004

   4.1  2.00000   -11.214917    -0.000094 -0.000115  0.001380  0.000029  0.000003 -0.000008  0.000642  0.000061  0.000048 -0.000022
                                 0.000002 -0.000015  0.000008  0.000005  0.001289 -0.000027 -0.000672 -0.000097 -0.000003 -0.000035
                                 0.001237  0.000078  0.000157  0.000024  0.000021 -0.000055  0.000075 -0.000035 -0.060599 -0.002469
                                 0.004762 -0.000564 -0.000026 -0.000092  0.001857  0.000106  0.000040  0.000000 -0.000034 -0.000113
                                -0.000405  0.000108  0.994221  0.025035 -0.013593 -0.000250 -0.000023 -0.000076  0.001189  0.000029
                                 0.000305  0.000175  0.000085  0.000128  0.000781 -0.000320 -0.000032  0.000016 -0.000024 -0.000007
                                -0.000003 -0.000030  0.000024 -0.000024  0.000004  0.000000 -0.000067 -0.000142 -0.000063 -0.000012
                                 0.000026 -0.000042 -0.000194  0.000088 -0.000028  0.000131 -0.000508  0.002259  0.000095 -0.000146
                                 0.000528 -0.000536  0.002267  0.000332  0.000139 -0.000429

   5.1  2.00000    -1.087470    -0.079666  0.153557  0.112100  0.078747  0.006016  0.005167  0.008023  0.000980  0.000399 -0.006818
                                 0.001234  0.001223  0.008020  0.000995 -0.130364  0.252595  0.168538  0.000142  0.007921 -0.038356
                                 0.013648  0.000775  0.000365 -0.001559  0.004010 -0.005986  0.014357 -0.003456 -0.140433  0.270227
                                 0.172474  0.018377 -0.009805  0.048697 -0.004931  0.000572 -0.000973 -0.001447  0.002725 -0.002564
                                 0.014534 -0.003607 -0.098030  0.185669  0.129859 -0.087670 -0.002314 -0.015910 -0.008343 -0.000076
                                -0.002631 -0.003262  0.000796  0.003016  0.010802 -0.001342  0.032413  0.005302  0.003000 -0.002393
                                -0.000534  0.032795  0.005920  0.002512  0.002938  0.000684  0.065384  0.012089 -0.002102  0.001538
                                -0.007185  0.071163  0.012149  0.002311 -0.001904  0.007486  0.048793  0.010432 -0.002648  0.001193
                                -0.004852  0.045456  0.007787 -0.004035 -0.001078  0.002889

   6.1  2.00000    -1.001947     0.130724 -0.251065 -0.194499 -0.089847 -0.004829 -0.015554 -0.005642 -0.000166 -0.000927  0.010000
                                -0.001083 -0.003483 -0.010018 -0.002071  0.097820 -0.188890 -0.139574  0.147036  0.016617 -0.011880
                                 0.022326  0.003176 -0.005087  0.002488 -0.000808 -0.005208 -0.009984  0.000987 -0.080040  0.153355
                                 0.108149  0.139646  0.010863 -0.000737  0.019456  0.003091 -0.005220 -0.002202 -0.001025  0.008232
                                 0.007449 -0.000391 -0.121011  0.228494  0.177777 -0.070713  0.000900 -0.024408 -0.008512 -0.000792
                                 0.000092 -0.000987  0.000673  0.003832  0.011139 -0.002536 -0.066180 -0.017677 -0.005558  0.004792
                                 0.000712 -0.066358 -0.017718 -0.004535 -0.005603 -0.001662 -0.055281 -0.015303  0.003024 -0.001028
                                 0.005465  0.042814  0.010490  0.002578 -0.000950  0.004085  0.066752  0.016936 -0.002918  0.001553
                                -0.006237  0.072713  0.022619 -0.005942 -0.001653  0.004468

   7.1  2.00000    -0.828144    -0.105590  0.204031  0.206453 -0.065706 -0.008540  0.009855 -0.026792 -0.003858  0.004190 -0.006940
                                -0.001019  0.002556 -0.001637  0.003568  0.066524 -0.132178 -0.127061 -0.185032 -0.029803  0.057073
                                -0.046223 -0.005725  0.007756 -0.006864 -0.002399  0.010178 -0.000668  0.004054  0.075977 -0.149876
                                -0.142653  0.189612  0.017534 -0.025135  0.049546  0.002243  0.001446 -0.008084 -0.002811  0.010860
                                -0.001039  0.005060 -0.111757  0.214286  0.206338  0.079737  0.005038 -0.002610  0.028670  0.002036
                                -0.001512  0.007513  0.000969 -0.001035  0.003556 -0.005073  0.100306  0.047050  0.005421 -0.006577
                                -0.001038  0.099958  0.046683  0.004016  0.007262  0.002124 -0.044076 -0.018044 -0.001179 -0.001199
                                 0.004507 -0.072195 -0.028983  0.000373  0.001651 -0.005963  0.105029  0.049083 -0.002155  0.002102
                                -0.008005  0.122665  0.056738 -0.006693 -0.002393  0.006912

   8.1  2.00000    -0.737023    -0.059412  0.116452  0.141840 -0.157541 -0.002563 -0.049745 -0.053984 -0.000990 -0.016739 -0.005362
                                -0.000296 -0.005342 -0.007374  0.003515  0.080693 -0.159584 -0.160597 -0.013194  0.033105 -0.137620
                                -0.006778  0.013670 -0.058327 -0.004830  0.000475 -0.003948 -0.002977  0.002493 -0.079914  0.157487
                                 0.162764  0.008483  0.049045 -0.175545  0.006110  0.019568 -0.068054  0.004857 -0.001141  0.006023
                                 0.002256 -0.002952  0.048641 -0.093965 -0.113347 -0.116552  0.025355 -0.118986 -0.033956  0.007335
                                -0.033023 -0.007646 -0.001232  0.004969  0.001125  0.004162  0.099445  0.058547  0.003748 -0.005850
                                -0.001984  0.098011  0.057675  0.002422  0.006659  0.000878 -0.142842 -0.082768  0.002222 -0.002147
                                 0.009995  0.166376  0.093575  0.003336 -0.002727  0.010557 -0.127918 -0.079784  0.002268 -0.002055
                                 0.007767 -0.044248 -0.023689  0.000548  0.001042 -0.003576

   9.1  2.00000    -0.646759     0.016123 -0.029033 -0.062333  0.274948  0.024896  0.015604  0.100949  0.010102  0.002420  0.001681
                                 0.002384  0.001767  0.013206 -0.003753 -0.024335  0.049478  0.025436 -0.233744 -0.010918 -0.030989
                                -0.068927 -0.002849 -0.008901 -0.001340 -0.000681  0.005529  0.001531  0.000566  0.020605 -0.043711
                                -0.031469 -0.052130  0.057958 -0.231566 -0.027888  0.021286 -0.086743  0.002655  0.000066 -0.000749
                                -0.001301 -0.001457 -0.010473  0.018844  0.044781  0.189451  0.062994 -0.179164  0.064876  0.026715
                                -0.080812  0.005581  0.001773 -0.007593 -0.002299 -0.002676 -0.105889 -0.074976 -0.001945  0.006236
                                 0.001252 -0.106781 -0.075713 -0.000729 -0.006458 -0.001651 -0.027180 -0.024623 -0.003546 -0.000570
                                 0.001289  0.121912  0.085514  0.002138 -0.001443  0.005547 -0.057672 -0.036871  0.004371 -0.000313
                                 0.002131  0.169415  0.117772 -0.006273 -0.002126  0.006165

  10.1  2.00000    -0.606635     0.001175 -0.004628  0.000276  0.061970 -0.016720  0.089424  0.028263 -0.007756  0.041896  0.002761
                                -0.001638  0.009521  0.002477 -0.000798  0.003726 -0.009743 -0.020951 -0.115103 -0.070284  0.253205
                                -0.027524 -0.031831  0.123678  0.002334 -0.001630  0.007926  0.000517 -0.000645 -0.009147  0.017233
                                 0.000072  0.340488  0.027252 -0.012029  0.090050  0.007361 -0.004512 -0.005896 -0.001552  0.008716
                                 0.002686  0.002919  0.004504 -0.007231 -0.025764 -0.290157  0.030925 -0.187418 -0.107064  0.015723
                                -0.083797 -0.015429 -0.000133  0.005197  0.008031  0.006253 -0.025851 -0.020262 -0.000565  0.000921
                                 0.001895 -0.023593 -0.018422 -0.000190 -0.001646  0.001308  0.129024  0.089124 -0.004618  0.001045
                                -0.006087 -0.033948 -0.030983  0.005322  0.001029 -0.002318 -0.174179 -0.129560 -0.000580 -0.002560
                                 0.008783 -0.049593 -0.043540 -0.002308  0.001060 -0.004477

  11.1  2.00000    -0.558943     0.001207 -0.002728 -0.001745 -0.054726  0.405812  0.096496 -0.026218  0.206699  0.049299  0.000371
                                -0.016354 -0.003471  0.002875  0.000172 -0.001093  0.002013  0.005004  0.001296  0.142923  0.046072
                                -0.000707  0.063951  0.021921  0.000118 -0.013460 -0.003069  0.001546 -0.002927  0.000729 -0.001543
                                -0.001263 -0.007273  0.023893  0.004074 -0.003553  0.009611  0.001670  0.001585 -0.004347 -0.001869
                                 0.001021  0.002288  0.000557 -0.001219 -0.000218  0.009331 -0.002633 -0.009001  0.003946 -0.009608
                                -0.006881  0.000121 -0.000477 -0.000795  0.000059 -0.000087  0.222200  0.188084  0.010354 -0.006196
                                -0.000824 -0.214643 -0.181664 -0.009042 -0.007368 -0.002094  0.010825  0.009045 -0.000238  0.003305
                                 0.000229  0.001682  0.001610 -0.000060  0.000389  0.000187 -0.003533 -0.002519  0.000207 -0.000165
                                 0.000119  0.007432  0.006285 -0.000202 -0.000256  0.000193

  12.1  2.00000    -0.555194     0.022179 -0.049818 -0.036170 -0.268680 -0.055386  0.029833 -0.108523 -0.026289  0.018940  0.002009
                                -0.002357  0.003525 -0.011574  0.002271 -0.012167  0.019714  0.066196  0.276457 -0.022504  0.168855
                                 0.091098 -0.016885  0.089660  0.017838  0.000090 -0.004654 -0.009983 -0.005799  0.009758 -0.021515
                                -0.006105 -0.150913 -0.000727 -0.032632 -0.055241 -0.004058  0.000184  0.008246  0.003277 -0.014930
                                -0.005241 -0.003685  0.013344 -0.027937 -0.024801  0.214457  0.069626 -0.191778  0.084031  0.034593
                                -0.101661  0.001769  0.004243 -0.016232 -0.000697 -0.001869  0.064122  0.056132 -0.000427 -0.004346
                                 0.000185  0.085911  0.074373 -0.000323  0.004434  0.002243  0.165505  0.139737  0.001360  0.001948
                                -0.008296  0.032648  0.034772 -0.000841 -0.000496  0.001552 -0.094434 -0.065389  0.004866 -0.000724
                                 0.003794  0.184953  0.155798 -0.005445 -0.001963  0.005851

  13.1  2.00000    -0.497207    -0.007204  0.018739  0.006010  0.043382  0.027796 -0.085017  0.014092  0.013704 -0.047584 -0.003190
                                 0.001977 -0.008336  0.001614  0.000116 -0.026121  0.058258  0.053354  0.053674  0.056624 -0.228895
                                 0.001469  0.028749 -0.120299 -0.013810  0.001500 -0.002785  0.007447  0.004374  0.000127  0.003914
                                -0.010905  0.023090 -0.078174  0.296427  0.013820 -0.049223  0.185128 -0.021888  0.006629 -0.018165
                                 0.011954  0.006407 -0.013915  0.030655  0.020313 -0.040944  0.063887 -0.239381  0.006644  0.041466
                                -0.147203 -0.013245  0.006447 -0.019571  0.007363  0.003196 -0.004092 -0.005059  0.000274  0.000921
                                -0.001676 -0.008496 -0.009510  0.000181 -0.000179 -0.001945 -0.131487 -0.132862  0.002850 -0.000843
                                 0.004498 -0.225628 -0.195360 -0.003025  0.002107 -0.008100 -0.172872 -0.161633  0.002438 -0.001453
                                 0.005582  0.130640  0.104882 -0.005622 -0.000905  0.001916

  14.1  1.76298    -0.372762    -0.000561  0.001222  0.003467  0.006204 -0.045944 -0.011349  0.005367 -0.037546 -0.009209  0.000160
                                 0.013621  0.003034 -0.002573  0.000892 -0.000420  0.001268 -0.001381 -0.015727  0.172751  0.038669
                                -0.010681  0.125026  0.027434 -0.003818  0.011896  0.003636 -0.003386 -0.007205  0.001847 -0.003878
                                -0.005222 -0.024690  0.375693  0.101188 -0.016848  0.258936  0.069906  0.004228  0.011137  0.002609
                                 0.000963  0.009666 -0.001351  0.002937  0.003940 -0.024792  0.317213  0.088735 -0.016568  0.225613
                                 0.063266 -0.002137 -0.019877 -0.004876  0.001704 -0.004803 -0.048475 -0.060556 -0.000770  0.000634
                                 0.000022  0.048381  0.059912  0.000625  0.000730  0.000237 -0.002375 -0.002668 -0.000240  0.003578
                                 0.000879 -0.000628 -0.000747 -0.000552  0.008028  0.002211  0.000730  0.000299 -0.000503  0.006958
                                 0.001963 -0.000899 -0.001920 -0.000513  0.006977  0.001897

  15.1  1.04773    -0.101725     0.000535 -0.001210 -0.003629  0.001417 -0.041055 -0.008472 -0.005013  0.024203  0.006242  0.001780
                                 0.044992  0.009941 -0.007905  0.005310 -0.001481  0.002864  0.008207 -0.035744  0.428225  0.098669
                                -0.042638  0.451931  0.105282 -0.001010 -0.006563 -0.001413  0.000804 -0.002435  0.000085 -0.000342
                                 0.003539  0.001851  0.002783  0.001820  0.001155 -0.006664  0.001687  0.002403 -0.030098 -0.008529
                                 0.006665  0.006823 -0.000109  0.000093  0.000003  0.020441 -0.304156 -0.084409  0.022505 -0.298283
                                -0.082803  0.001265  0.003705  0.000914  0.000203  0.002637 -0.123361 -0.246114 -0.000584  0.001992
                                 0.000583  0.124547  0.248438  0.000083  0.002244  0.000433 -0.001343 -0.002616 -0.000923  0.011232
                                 0.002701 -0.003648 -0.005610 -0.000092  0.000079  0.000031  0.000685 -0.001551  0.000557 -0.007332
                                -0.002109 -0.000126 -0.001337  0.000543 -0.007998 -0.002214

  16.1  1.00001    -0.093275    -0.005629  0.018274 -0.055027 -0.006964 -0.113965  0.494970 -0.067510 -0.136359  0.564286  0.002025
                                -0.002102  0.007762 -0.000814  0.000183 -0.000565  0.011709  0.022147 -0.014352  0.012851 -0.067478
                                -0.107001 -0.001503 -0.044551 -0.019804  0.012228 -0.044751  0.009956  0.001594 -0.034386  0.069261
                                 0.304020 -0.111699 -0.025633  0.069986  0.005675 -0.016378  0.077354 -0.000652  0.000783 -0.002464
                                 0.001679 -0.000509  0.004354 -0.004711 -0.099858  0.031719 -0.000743  0.015754  0.089063 -0.000347
                                 0.024260 -0.001198  0.000906 -0.003853 -0.000821  0.000438  0.000288 -0.014581 -0.000127 -0.002926
                                 0.013185 -0.000368 -0.016760 -0.000116 -0.003122  0.013124 -0.145589 -0.260749 -0.005536 -0.001489
                                 0.003844 -0.008150 -0.072169 -0.001271 -0.000023 -0.000159  0.001046 -0.037718  0.000804  0.000211
                                -0.000528  0.011118  0.013062  0.000097  0.000013  0.000225

  17.1  0.18928     0.222621    -0.000968  0.002327  0.007338  0.005521 -0.022578 -0.006076  0.009394 -0.057764 -0.012974 -0.001877
                                -0.029253 -0.006407  0.004739 -0.004747 -0.000246  0.001001 -0.003133  0.023368 -0.244324 -0.059226
                                 0.035211 -0.330418 -0.079786 -0.005903  0.025645  0.007199 -0.006748 -0.011569  0.001529 -0.002349
                                -0.016689 -0.032909  0.500492  0.134693 -0.040268  0.571300  0.148501 -0.001908 -0.003861 -0.000867
                                -0.000085 -0.005786  0.000579 -0.000530 -0.002879  0.029445 -0.426186 -0.119130  0.028832 -0.429803
                                -0.118458 -0.001776 -0.017406 -0.004216  0.001911 -0.004865  0.063495  0.163460 -0.000732 -0.001062
                                -0.000512 -0.064154 -0.166075  0.000994 -0.001121 -0.000043 -0.001381 -0.003831  0.000601 -0.007186
                                -0.001686  0.003122  0.003744 -0.000667  0.010834  0.002969  0.001923  0.003358  0.000651 -0.009328
                                -0.002625  0.000455  0.001463  0.000638 -0.009143 -0.002546


 Natural orbital dump (state averaged) at molpro section   2140.2    (Orbital set 2)


 CI vector
 ---------

 2+-0      0.9662239   0.0053358  -0.0612941  -0.0029719
 +2-0     -0.0204648   0.0000012  -0.7128601   0.0063011
 2020     -0.0014961   0.7002650   0.0051868   0.6682648
 2200      0.0061297  -0.6666809   0.0067410   0.6997998
 20+-     -0.0086285   0.0011682   0.5670067  -0.0044436
 +-+-      0.1813722   0.0001608   0.2824392  -0.0034432
 +0-2     -0.0265270  -0.0002510   0.1788026  -0.0015768
 02+-      0.0403571  -0.0003060  -0.1753814   0.0020078
 ++--      0.0983039   0.0003476   0.1513286  -0.0016414
 0+-2     -0.1448547  -0.0006405   0.0330676   0.0003542
 2+0-     -0.0011456   0.1240914   0.0007877  -0.1263934
 +-20     -0.0007708  -0.1090291  -0.0022152  -0.0969328
 0202     -0.0009929   0.0939029  -0.0008677  -0.0973413
 0022      0.0002198  -0.0941152  -0.0007645  -0.0885593
 0+2-     -0.0003567  -0.0889109  -0.0011331  -0.0845302
 +-02     -0.0005397   0.0725379  -0.0002355  -0.0761564
 0220     -0.0002579  -0.0697656  -0.0009189  -0.0716325
 2002     -0.0000155   0.0454552  -0.0008169  -0.0527159

 TOTAL ENERGIES                      -154.84635941  -154.71413291  -154.71231816
                                     -154.71016147



 **********************************************************************************************************************************
 DATASETS  * FILE   NREC   LENGTH (MB)   RECORD NAMES
              1      24       39.61       701      600      500      702      960      900      950      970     1000     1100   
                                         GEOM    BASINP     VAR     GEOM    ABASIS   SYMINP    ZMAT    AOBASIS   BASIS      S 
                                         1400     1410     1200     1210     1080     1600      129     1650     1300     1700   
                                           T        V       H0       H01     AOSYM     SMH      P2S    MOLCAS    ERIS     OPER   
                                         1380     5100     5101     5102   
                                         JKOP    CPSAMC   CPSAMC   CPSAMC    

              2       8        1.58       500      600      700     1000     2200     2140      701      702   
                                          VAR    BASINP    GEOM     BASIS     UHF     MCSCF    GEOM     GEOM   

 PROGRAMS   *        TOTAL     MULTI   UHF-SCF       INT   RESTART
 CPU TIMES  *        13.74      9.65      1.64      2.39      0.00
 REAL TIME  *        19.91 SEC
 DISK USED  *       103.01 MB
 **********************************************************************************************************************************

1PROGRAM * FORCE (Gradient of the energy)

 SA-MCSCF information from    5100.1
 Orbitals from record         2140.2

 Number of closed-shell orbitals: 13 ( 13 )
 Number of active orbitals:        4 (  4 )
 Number of occupied orbitals:     17 ( 17 )

 Number of electrons=30     Singlet     Space symmetry=1      Wavefunction type: SA-MCSCF


 End of calculation of the energy gradient  ,IREST=   0


 SA-MC GRADIENT FOR STATE 4.1

 Atom          dE/dx               dE/dy               dE/dz

   1         0.044925141        -0.000285592         0.019173742
   2         0.003251211         0.011878134        -0.040284138
   3         0.038614958        -0.008577273         0.033220556
   4        -0.041213342         0.002647165        -0.017178373
   5        -0.018368322         0.011846382         0.001657496
   6        -0.015510357        -0.014940364        -0.003996538
   7        -0.012167242        -0.003924952         0.010665958
   8         0.000500024         0.001675691        -0.002592064
   9        -0.000530346        -0.000729881        -0.000059477
  10         0.000498275         0.000410690        -0.000607161



 **********************************************************************************************************************************
 DATASETS  * FILE   NREC   LENGTH (MB)   RECORD NAMES
              1      24       39.61       701      600      500      702      960      900      950      970     1000     1100   
                                         GEOM    BASINP     VAR     GEOM    ABASIS   SYMINP    ZMAT    AOBASIS   BASIS      S 
                                         1400     1410     1200     1210     1080     1600      129     1650     1300     1700   
                                           T        V       H0       H01     AOSYM     SMH      P2S    MOLCAS    ERIS     OPER   
                                         1380     5100     5101     5102   
                                         JKOP    CPSAMC   CPSAMC   CPSAMC    

              2       8        1.58       500      600      700     1000     2200     2140      701      702   
                                          VAR    BASINP    GEOM     BASIS     UHF     MCSCF    GEOM     GEOM   

 PROGRAMS   *        TOTAL    FORCES     MULTI   UHF-SCF       INT   RESTART
 CPU TIMES  *        22.61      8.86      9.65      1.64      2.39      0.00
 REAL TIME  *        28.80 SEC
 DISK USED  *       103.01 MB
 **********************************************************************************************************************************

1PROGRAM * FORCE (Gradient of the energy)

 SA-MCSCF information from    5101.1
 Orbitals from record         2140.2

 Number of closed-shell orbitals: 13 ( 13 )
 Number of active orbitals:        4 (  4 )
 Number of occupied orbitals:     17 ( 17 )

 Number of electrons=30     Singlet     Space symmetry=1      Wavefunction type: SA-MCSCF


 End of calculation of the energy gradient  ,IREST=   0


 SA-MC GRADIENT FOR STATE 3.1

 Atom          dE/dx               dE/dy               dE/dz

   1         0.170870603         0.007647503         0.040683681
   2        -0.122766414         0.005392129        -0.069695432
   3         0.198954195        -0.003966270         0.068738089
   4        -0.183714893         0.000197652        -0.051626254
   5        -0.029703468         0.013263226         0.000892673
   6        -0.026328631        -0.018157632        -0.005445057
   7        -0.005730930        -0.005723197         0.019282876
   8        -0.001667173         0.001259778        -0.002041235
   9        -0.000695046        -0.000627668         0.002277703
  10         0.000781757         0.000714479        -0.003067044



 **********************************************************************************************************************************
 DATASETS  * FILE   NREC   LENGTH (MB)   RECORD NAMES
              1      24       39.61       701      600      500      702      960      900      950      970     1000     1100   
                                         GEOM    BASINP     VAR     GEOM    ABASIS   SYMINP    ZMAT    AOBASIS   BASIS      S 
                                         1400     1410     1200     1210     1080     1600      129     1650     1300     1700   
                                           T        V       H0       H01     AOSYM     SMH      P2S    MOLCAS    ERIS     OPER   
                                         1380     5100     5101     5102   
                                         JKOP    CPSAMC   CPSAMC   CPSAMC    

              2       8        1.58       500      600      700     1000     2200     2140      701      702   
                                          VAR    BASINP    GEOM     BASIS     UHF     MCSCF    GEOM     GEOM   

 PROGRAMS   *        TOTAL    FORCES    FORCES     MULTI   UHF-SCF       INT   RESTART
 CPU TIMES  *        31.02      8.41      8.86      9.65      1.64      2.39      0.00
 REAL TIME  *        37.28 SEC
 DISK USED  *       103.01 MB
 **********************************************************************************************************************************

1PROGRAM * FORCE (Gradient of the energy)

 SA-MCSCF information from    5102.1
 Orbitals from record         2140.2

 Number of closed-shell orbitals: 13 ( 13 )
 Number of active orbitals:        4 (  4 )
 Number of occupied orbitals:     17 ( 17 )

 Number of electrons=30     Singlet     Space symmetry=1      Wavefunction type: SA-MCSCF


 End of calculation of the energy gradient  ,IREST=   0


 SA-MC GRADIENT FOR STATE 2.1

 Atom          dE/dx               dE/dy               dE/dz

   1         0.044417009        -0.000632058         0.020123377
   2         0.007509419         0.013041660        -0.042409757
   3         0.036649610        -0.009333962         0.034700604
   4        -0.039985823         0.002891928        -0.017445517
   5        -0.019478286         0.012787587         0.001778035
   6        -0.016448066        -0.015968455        -0.004372857
   7        -0.013264835        -0.004228393         0.011135475
   8         0.000661574         0.001699808        -0.002778919
   9        -0.000535934        -0.000737196        -0.000126167
  10         0.000475333         0.000479081        -0.000604274



 **********************************************************************************************************************************
 DATASETS  * FILE   NREC   LENGTH (MB)   RECORD NAMES
              1      24       39.61       701      600      500      702      960      900      950      970     1000     1100   
                                         GEOM    BASINP     VAR     GEOM    ABASIS   SYMINP    ZMAT    AOBASIS   BASIS      S 
                                         1400     1410     1200     1210     1080     1600      129     1650     1300     1700   
                                           T        V       H0       H01     AOSYM     SMH      P2S    MOLCAS    ERIS     OPER   
                                         1380     5100     5101     5102   
                                         JKOP    CPSAMC   CPSAMC   CPSAMC    

              2       8        1.58       500      600      700     1000     2200     2140      701      702   
                                          VAR    BASINP    GEOM     BASIS     UHF     MCSCF    GEOM     GEOM   

 PROGRAMS   *        TOTAL    FORCES    FORCES    FORCES     MULTI   UHF-SCF       INT   RESTART
 CPU TIMES  *        39.64      8.62      8.41      8.86      9.65      1.64      2.39      0.00
 REAL TIME  *        45.92 SEC
 DISK USED  *       103.01 MB
 **********************************************************************************************************************************

        MULTI           MULTI           MULTI           MULTI           UHF-SCF 
   -154.71016147   -154.71231816   -154.71413291   -154.84635941   -154.75209038
 **********************************************************************************************************************************
 Variable memory released
