[Molden Format]
[Atoms] Angs
 c       1                    6  6.795000000000e-01  0.000000000000e+00 -1.000000000000e-03
 c       2                    6 -6.632000000000e-01 -0.000000000000e+00 -1.900000000000e-03
 h       3                    1  1.240800000000e+00  9.362000000000e-01  8.860000000000e-02
 h       4                    1  1.240900000000e+00 -9.362000000000e-01 -8.990000000000e-02
 h       5                    1 -1.237900000000e+00 -9.340000000000e-01  7.180000000000e-02
 h       6                    1 -1.237600000000e+00  9.341000000000e-01 -7.640000000000e-02
[GTO]
1
 s           5
      1.238401693800e+03      5.517365048110e-03
      1.862900499200e+02      4.108882855595e-02
      4.225117634600e+01      1.822538212649e-01
      1.167655793200e+01      4.682845943743e-01
      3.593050648200e+00      4.457581733600e-01
 s           1
      4.024514736300e-01      1.000000000000e+00
 s           1
      1.309018266800e-01      1.000000000000e+00
 p           3
      9.468097062100e+00      5.688833201104e-02
      2.010354514200e+00      3.129405933647e-01
      5.477100470700e-01      7.606501650914e-01
 p           1
      1.526861379500e-01      1.000000000000e+00
 d           1
      8.000000000000e-01      1.000000000000e+00

2
 s           5
      1.238401693800e+03      5.517365048110e-03
      1.862900499200e+02      4.108882855595e-02
      4.225117634600e+01      1.822538212649e-01
      1.167655793200e+01      4.682845943743e-01
      3.593050648200e+00      4.457581733600e-01
 s           1
      4.024514736300e-01      1.000000000000e+00
 s           1
      1.309018266800e-01      1.000000000000e+00
 p           3
      9.468097062100e+00      5.688833201104e-02
      2.010354514200e+00      3.129405933647e-01
      5.477100470700e-01      7.606501650914e-01
 p           1
      1.526861379500e-01      1.000000000000e+00
 d           1
      8.000000000000e-01      1.000000000000e+00

3
 s           3
      1.301070100000e+01      3.348548481299e-02
      1.962257200000e+00      2.347218708812e-01
      4.445379600000e-01      8.137702852596e-01
 s           1
      1.219496200000e-01      1.000000000000e+00
 p           1
      8.000000000000e-01      1.000000000000e+00

4
 s           3
      1.301070100000e+01      3.348548481299e-02
      1.962257200000e+00      2.347218708812e-01
      4.445379600000e-01      8.137702852596e-01
 s           1
      1.219496200000e-01      1.000000000000e+00
 p           1
      8.000000000000e-01      1.000000000000e+00

5
 s           3
      1.301070100000e+01      3.348548481299e-02
      1.962257200000e+00      2.347218708812e-01
      4.445379600000e-01      8.137702852596e-01
 s           1
      1.219496200000e-01      1.000000000000e+00
 p           1
      8.000000000000e-01      1.000000000000e+00

6
 s           3
      1.301070100000e+01      3.348548481299e-02
      1.962257200000e+00      2.347218708812e-01
      4.445379600000e-01      8.137702852596e-01
 s           1
      1.219496200000e-01      1.000000000000e+00
 p           1
      8.000000000000e-01      1.000000000000e+00


[5D]
[7F]
[9G]
[MO]
 Ene=  -11.250121
 Spin=  Alpha
 Occup=    2.000000
   1    -0.5953031641002311
   2    -0.0189894152249332
   3     0.0080443601222281
   4    -0.0012266241123757
   5    -0.0000000028711528
   6    -0.0000007573471017
   7     0.0007871555836374
   8    -0.0000002878785733
   9     0.0000004256385354
  10     0.0005278546662293
  11    -0.0000005697482307
  12    -0.0001439403055187
  13     0.0000120071841278
  14     0.0000000046285403
  15    -0.7922373652291640
  16    -0.0266019868381915
  17     0.0142755353941089
  18     0.0010027013241032
  19    -0.0000000747746844
  20     0.0000007125831761
  21    -0.0002032246694107
  22     0.0000006465484606
  23    -0.0000002123301862
  24     0.0009991620908404
  25    -0.0000012083658678
  26     0.0001817432487888
  27    -0.0000600747792292
  28    -0.0000003557347963
  29     0.0011676353390328
  30    -0.0027215249361029
  31     0.0000157260916904
  32    -0.0005863242433599
  33    -0.0000591582574759
  34     0.0011675278203044
  35    -0.0027219581069653
  36     0.0000157053524720
  37     0.0005862415184953
  38     0.0000592085959066
  39     0.0016835134438503
  40    -0.0037673485279082
  41     0.0002187907741929
  42     0.0009006423069921
  43    -0.0000759326623962
  44     0.0016831272892536
  45    -0.0037680222223299
  46     0.0002184029939211
  47    -0.0009004641138455
  48     0.0000762388033183
 Ene=  -11.248642
 Spin=  Alpha
 Occup=    2.000000
   1     0.7920914146702495
   2     0.0301605306047740
   3    -0.0240736248823110
   4    -0.0006864151973631
   5     0.0000000067971016
   6    -0.0000005808850354
   7     0.0019162589659591
   8     0.0000002179054016
   9     0.0000014314351483
  10    -0.0017301490673951
  11     0.0000020397513295
  12     0.0002577327880935
  13     0.0001170581405062
  14    -0.0000002338981492
  15    -0.5951205418196764
  16    -0.0236223180366199
  17     0.0208736683512099
  18    -0.0009773735399019
  19    -0.0000001445536058
  20    -0.0000006087127184
  21     0.0020095916201817
  22    -0.0000002243271117
  23     0.0000012845121502
  24     0.0015079598937794
  25    -0.0000018707487011
  26     0.0001612306453914
  27    -0.0001607983008759
  28    -0.0000002819245569
  29    -0.0020319247112619
  30     0.0044409149149359
  31     0.0008155102825634
  32     0.0011299944639208
  33     0.0001130409377429
  34    -0.0020318858857601
  35     0.0044409563056962
  36     0.0008156586427252
  37    -0.0011300172311223
  38    -0.0001120344216609
  39     0.0015896740688356
  40    -0.0035062701448567
  41     0.0007823265299638
  42     0.0009166073195739
  43    -0.0000758421074576
  44     0.0015898278023180
  45    -0.0035059138064918
  46     0.0007821431375604
  47    -0.0009166690192634
  48     0.0000769258406581
 Ene=   -1.024355
 Spin=  Alpha
 Occup=    2.000000
   1     0.2005351332292353
   2    -0.3865206623980029
   3    -0.1132930067855796
   4     0.1254664589445603
   5     0.0000006388923323
   6     0.0000820651224202
   7     0.0217433273203070
   8    -0.0000016442791984
   9     0.0000123390566943
  10     0.0114827901729015
  11    -0.0000226867769939
  12    -0.0006287438130706
  13    -0.0142649280172705
  14     0.0000006894658850
  15     0.1997539020711410
  16    -0.3855978993050940
  17    -0.1145649458787352
  18    -0.1259273990495085
  19    -0.0000084129940473
  20    -0.0000870199277192
  21    -0.0228236820736847
  22     0.0000011804181664
  23    -0.0000182008424762
  24     0.0115446931674395
  25    -0.0000232214538707
  26     0.0005391488796477
  27    -0.0143922756649161
  28    -0.0000005235201579
  29    -0.1050800326265783
  30    -0.0106300900577503
  31     0.0094419117190542
  32     0.0128446640290783
  33     0.0011507429098563
  34    -0.1050833273390426
  35    -0.0106324674441554
  36     0.0094432791458790
  37    -0.0128449616263978
  38    -0.0011388987705942
  39    -0.1033057146838208
  40    -0.0106530218922962
  41    -0.0093705687924648
  42    -0.0125062441482412
  43     0.0009026322300834
  44    -0.1033246103468915
  45    -0.0106570178495212
  46    -0.0093688598103391
  47     0.0125098121117335
  48    -0.0009159698088474
 Ene=   -0.782587
 Spin=  Alpha
 Occup=    2.000000
   1    -0.1528615926695745
   2     0.3057261976854325
   3     0.1425167404633758
   4     0.1569082841068069
   5    -0.0000074744320283
   6     0.0001037946619655
   7     0.0556612994217234
   8    -0.0000033429222404
   9     0.0000405292971699
  10    -0.0037484602300296
  11    -0.0000039073848989
  12     0.0021962612360293
  13    -0.0114562478228531
  14    -0.0000008542685486
  15     0.1537758405425686
  16    -0.3078726635380062
  17    -0.1437796364977215
  18     0.1586489973772685
  19    -0.0000102748249144
  20     0.0001097618944907
  21     0.0558919529752988
  22    -0.0000006173966891
  23     0.0000369080252444
  24     0.0038624713414321
  25     0.0000030853821349
  26     0.0018983986199302
  27     0.0112405594615687
  28    -0.0000027742965477
  29     0.1910975650471750
  30     0.0359404101209598
  31    -0.0070649983686679
  32    -0.0171259650609575
  33    -0.0016457337940144
  34     0.1911047756676014
  35     0.0359409908434567
  36    -0.0070674792267256
  37     0.0171264654032179
  38     0.0016373315530035
  39    -0.1924032798796584
  40    -0.0364584528533376
  41    -0.0073237265558487
  42    -0.0171789046658276
  43     0.0013720316463661
  44    -0.1923989481404953
  45    -0.0364577291535882
  46    -0.0073177005508201
  47     0.0171800122478151
  48    -0.0013822896822150
 Ene=   -0.641224
 Spin=  Alpha
 Occup=    2.000000
   1     0.0000017584148712
   2    -0.0000041724536111
   3     0.0000008300620066
   4    -0.0000186396545629
   5     0.3192016094708919
   6     0.0118859734600147
   7    -0.0000000109713006
   8     0.1301009700356315
   9    -0.0102880991011256
  10     0.0000011776324088
  11     0.0014132362659111
  12    -0.0000005684161205
  13    -0.0000002716009432
  14     0.0011036497043742
  15     0.0000070279512050
  16    -0.0000145906872246
  17    -0.0000213109301444
  18     0.0000318808901467
  19     0.3106690992536857
  20    -0.0049900583221090
  21     0.0000006328277259
  22     0.1294668248664704
  23     0.0131696897142821
  24     0.0000016472359172
  25     0.0014676124256206
  26    -0.0000011561320541
  27    -0.0000037692359941
  28    -0.0005200122771800
  29     0.2082704922864616
  30     0.0521462003237231
  31    -0.0101406031572163
  32    -0.0096060707806087
  33    -0.0017934629999614
  34    -0.2082843585984020
  35    -0.0521479066649324
  36     0.0101429181964684
  37    -0.0096071679294924
  38    -0.0017807989383844
  39    -0.2004012520277931
  40    -0.0493433560792396
  41    -0.0099494442203966
  42    -0.0091808772555269
  43     0.0016072940184480
  44     0.2003918219359394
  45     0.0493433818163715
  46     0.0099456271661307
  47    -0.0091811123515840
  48     0.0016211384134575
 Ene=   -0.590981
 Spin=  Alpha
 Occup=    2.000000
   1    -0.0091062016248116
   2     0.0302892409122288
   3    -0.0349462079129741
   4    -0.4069153615620723
   5    -0.0000532462413882
   6    -0.0002534589878310
   7    -0.1431290157011715
   8    -0.0000243462565823
   9    -0.0000812415811861
  10     0.0000327312386803
  11     0.0000135743426795
  12    -0.0018585219255793
  13     0.0212807750490992
  14    -0.0000011206430049
  15    -0.0109781040310021
  16     0.0341237513760942
  17    -0.0329265095357980
  18     0.4059943592926794
  19     0.0000116349937859
  20     0.0002895046083687
  21     0.1425835259715988
  22     0.0000062714127810
  23     0.0001067641193861
  24     0.0001353283953938
  25     0.0000148946633311
  26     0.0014793661157139
  27     0.0208280013287307
  28    -0.0000057121534723
  29    -0.1703366318927771
  30    -0.0570339824736691
  31    -0.0008714832770719
  32     0.0118108920752566
  33     0.0012453739054993
  34    -0.1702561872504206
  35    -0.0570059943299339
  36    -0.0008740525365079
  37    -0.0118076776941190
  38    -0.0012454335498017
  39    -0.1695623811735853
  40    -0.0567434179386403
  41     0.0006089891133109
  42    -0.0117877586729437
  43     0.0010599969989794
  44    -0.1694967363009735
  45    -0.0567204489909992
  46     0.0006167605706570
  47     0.0117847112791293
  48    -0.0010582371499123
 Ene=   -0.501013
 Spin=  Alpha
 Occup=    2.000000
   1     0.0000071683547319
   2    -0.0000180642751960
   3     0.0000019785503642
   4     0.0001618278542451
   5    -0.2583753055478910
   6    -0.1759556214654691
   7     0.0000924266099086
   8    -0.1119176684308680
   9    -0.1198724247255507
  10     0.0000109664571491
  11     0.0094269670954102
  12    -0.0000150757131481
  13    -0.0000086842105886
  14    -0.0240415171884929
  15     0.0000043047567155
  16    -0.0000109799964552
  17    -0.0000123731242276
  18     0.0000807910787604
  19     0.2690998534438528
  20    -0.1716766720636069
  21     0.0000607120588444
  22     0.1188845139209380
  23    -0.1173671376632909
  24    -0.0000112566828398
  25    -0.0097444992213054
  26    -0.0000173189080431
  27    -0.0000000957944506
  28    -0.0241280414609779
  29    -0.2312624269273210
  30    -0.1007145188287510
  31     0.0089715586440842
  32     0.0087024828885484
  33    -0.0032021204890848
  34     0.2312946040608347
  35     0.1007260164195742
  36    -0.0089664025323496
  37     0.0087047601259373
  38    -0.0032130707134678
  39    -0.2366453059309941
  40    -0.1031471617883256
  41    -0.0094410171629946
  42    -0.0086989748327872
  43    -0.0032625324913846
  44     0.2366936301353718
  45     0.1031645375995394
  46     0.0094425608389166
  47    -0.0087042007629138
  48    -0.0032492095617820
 Ene=    0.000000
 Spin=  Alpha
 Occup=    1.476451
   1     0.0000043895799919
   2    -0.0000089876293416
   3    -0.0000005073267392
   4    -0.0001795624528803
   5    -0.1431501214641587
   6     0.3350624671740768
   7    -0.0001681731790200
   8    -0.0716616111669458
   9     0.2768566149542739
  10    -0.0000369134019673
  11    -0.0311090375456156
  12    -0.0000077212607246
  13     0.0000185637023523
  14    -0.0126944760645887
  15     0.0000024271291496
  16    -0.0000053256215997
  17     0.0000007937706834
  18    -0.0002681390974429
  19     0.1399471962538044
  20     0.3378753351847911
  21    -0.0002066791225248
  22     0.0688738569524765
  23     0.2792636296727640
  24     0.0000353397218773
  25     0.0308222123248333
  26    -0.0000089048601633
  27    -0.0000251171700949
  28    -0.0133374188038522
  29    -0.1100527605955525
  30    -0.0600427617863760
  31     0.0030710920586434
  32     0.0027737241913042
  33     0.0098293683128901
  34     0.1100774848163520
  35     0.0600585198619188
  36    -0.0030826206709725
  37     0.0027748243023786
  38     0.0098260239560736
  39    -0.1118489986534039
  40    -0.0611137951577702
  41    -0.0032845065112723
  42    -0.0029298292489674
  43     0.0096995768436915
  44     0.1118850302324277
  45     0.0611265346655110
  46     0.0032691939765317
  47    -0.0029330023570442
  48     0.0097056771480355
 Ene=    0.000000
 Spin=  Alpha
 Occup=    0.523549
   1     0.0000042872506069
   2    -0.0000133521532170
   3    -0.0000564299277030
   4     0.0002444152185143
   5     0.0278306509874536
   6    -0.3606947216173955
   7     0.0004760648091624
   8     0.1334300006943638
   9    -0.6976205576187091
  10    -0.0000248884779918
  11    -0.0215356080083731
  12    -0.0000115643061342
  13     0.0000154342263101
  14    -0.0177478681543322
  15     0.0000008945012774
  16     0.0000037692233856
  17    -0.0000319737449751
  18    -0.0002191440720558
  19     0.0222119012802432
  20     0.3606490798043596
  21    -0.0004180922998353
  22     0.1249150887902441
  23     0.6994536975342325
  24    -0.0000255326545121
  25    -0.0214235540589351
  26     0.0000133364847637
  27     0.0000144265301961
  28     0.0181512371415206
  29    -0.0568459135484469
  30    -0.0876266184584815
  31    -0.0033521161946185
  32     0.0043333174520951
  33    -0.0181745710251765
  34     0.0568537538840873
  35     0.0876447573886831
  36     0.0033769838297204
  37     0.0043347642746071
  38    -0.0181695562686549
  39     0.0577165894438366
  40     0.0890121445025989
  41    -0.0031380292134912
  42     0.0040707403704376
  43     0.0182651800908340
  44    -0.0577102107853627
  45    -0.0889229295555427
  46     0.0031170670037072
  47     0.0040731173806738
  48     0.0182676859092369
 Ene=    0.201656
 Spin=  Alpha
 Occup=    0.000000
   1     0.0734803876928055
   2    -0.1215295700033092
   3    -1.5608681899074235
   4    -0.1306157627923274
   5    -0.0000230605921410
   6    -0.0000776443931835
   7    -0.5451819310688706
   8    -0.0000820082833883
   9    -0.0003395382205777
  10     0.0025720277973588
  11    -0.0000050819638336
  12    -0.0012190729383825
  13    -0.0039797705070424
  14     0.0000015864881533
  15     0.0750506211053696
  16    -0.1241826038624113
  17    -1.5561003909625271
  18     0.1314684108434014
  19    -0.0000315898311108
  20     0.0000866569107312
  21     0.5686214207687583
  22    -0.0001261970791342
  23     0.0003865154160602
  24     0.0026517471374381
  25    -0.0000052712028497
  26     0.0012267501712542
  27    -0.0038323664301260
  28    -0.0000028174782027
  29     0.0070390288158298
  30     1.0953391370606984
  31    -0.0053447925345218
  32    -0.0013378621906578
  33    -0.0010977121137734
  34     0.0070308679011902
  35     1.0951266121025247
  36    -0.0053449370516256
  37     0.0013370917921215
  38     0.0010910658885819
  39     0.0065287753563424
  40     1.1083945160375375
  41     0.0051055613392541
  42     0.0015793795588773
  43    -0.0010823086179217
  44     0.0065442782022271
  45     1.1086107928744591
  46     0.0051030831603272
  47    -0.0015807586869701
  48     0.0010889836037364
 Ene=    0.227270
 Spin=  Alpha
 Occup=    0.000000
   1    -0.0000279203295830
   2     0.0000385301044734
   3     0.0004126889696533
   4    -0.0000271053010171
   5     0.2153852229093721
   6     0.0458769309876296
   7    -0.0000701743063969
   8     0.7526887641130353
   9     0.1819473876690959
  10     0.0000022747461183
  11     0.0021955508855502
  12    -0.0000094285685105
  13    -0.0000037042276414
  14    -0.0132617593425205
  15     0.0000423722860924
  16    -0.0000658549159365
  17    -0.0007639916708739
  18     0.0000805180077562
  19     0.2180063760327769
  20    -0.0422923037599814
  21     0.0003625767444778
  22     0.7419029789070573
  23    -0.1684297203845514
  24     0.0000021976932401
  25     0.0023887251271134
  26     0.0000083495598846
  27     0.0000010125597805
  28     0.0130218208094359
  29    -0.0298385717208632
  30    -1.1482320174325185
  31     0.0023273275110455
  32     0.0046149694801291
  33     0.0020388118680294
  34     0.0298288041950240
  35     1.1477205007787556
  36    -0.0023323902361400
  37     0.0046132513396038
  38     0.0020358038712357
  39     0.0295499778649237
  40     1.1325419453569239
  41     0.0022991372238568
  42     0.0044461785767978
  43    -0.0019479954320409
  44    -0.0295340262068613
  45    -1.1315451539911883
  46    -0.0022980252431755
  47     0.0044431048914838
  48    -0.0019506369723890
 Ene=    0.236248
 Spin=  Alpha
 Occup=    0.000000
   1     0.0953405606469744
   2    -0.1255129743672085
   3    -2.2445354488138682
   4    -0.0811861506967238
   5     0.0000854190627083
   6    -0.0000411194653538
   7    -0.1908757985886606
   8     0.0003703400426388
   9    -0.0000470996494938
  10     0.0035949236672131
  11     0.0000015604991788
  12     0.0005933042187314
  13     0.0077184341199706
  14    -0.0000018835146667
  15    -0.0937172603985423
  16     0.1218616351402291
  17     2.2183503898948147
  18    -0.0817010923412436
  19     0.0000648951154202
  20    -0.0000631574557585
  21    -0.1919000593038644
  22     0.0001951986473230
  23    -0.0001888089756573
  24    -0.0034967209664262
  25    -0.0000007061664817
  26     0.0008503933063468
  27    -0.0080454461375052
  28     0.0000043802676432
  29     0.0085390271227295
  30     1.2482565579978870
  31     0.0000562920922866
  32    -0.0051902789213016
  33     0.0004541403731709
  34     0.0085477052109511
  35     1.2492215759859246
  36     0.0000516464927741
  37     0.0051944570163665
  38    -0.0004535387691102
  39    -0.0088038157299169
  40    -1.2303469194558891
  41     0.0003803314464900
  42    -0.0053940046282400
  43    -0.0005422134185561
  44    -0.0088120791029932
  45    -1.2309483755706692
  46     0.0003797934702957
  47     0.0053967064897870
  48     0.0005424117222347
 Ene=    0.299823
 Spin=  Alpha
 Occup=    0.000000
   1     0.0000041610029018
   2     0.0000010779187072
   3    -0.0004181607452572
   4     0.0000004137681949
   5    -0.1943193265185614
   6    -0.0269508213996611
   7     0.0001325824466778
   8    -1.5795310139378893
   9    -0.0871656180343957
  10     0.0000014765392379
  11     0.0006339249139780
  12    -0.0000115866962530
  13     0.0000018251910240
  14    -0.0193234223551678
  15    -0.0000068134911590
  16     0.0000075529702094
  17     0.0003595712209512
  18     0.0000280900391960
  19     0.1963460209213476
  20    -0.0251528669579183
  21     0.0002368741784018
  22     1.5713341075763088
  23    -0.0645259849216603
  24    -0.0000030641331218
  25    -0.0008563554459797
  26    -0.0000133649469698
  27    -0.0000011144349981
  28    -0.0184689387578429
  29    -0.0261665521763273
  30     1.6176259588364983
  31    -0.0127981109216317
  32    -0.0090252374548367
  33    -0.0008915766830481
  34     0.0261631960659319
  35    -1.6173592438942386
  36     0.0127990595417313
  37    -0.0090226858616334
  38    -0.0008758395129761
  39    -0.0235479479999977
  40     1.6115324014366474
  41     0.0127229419834424
  42     0.0088585637028901
  43    -0.0007840314933567
  44     0.0235463963166753
  45    -1.6117231003562236
  46    -0.0127225972708196
  47     0.0088591293613913
  48    -0.0008017956567522
 Ene=    0.477404
 Spin=  Alpha
 Occup=    0.000000
   1     0.0587451181111671
   2    -0.0858613046292919
   3    -5.0402973958724733
   4     0.1617833555499445
   5     0.0000050664533052
   6     0.0001050015093077
   7     3.4483879832069690
   8     0.0000048064319470
   9     0.0022967850404140
  10     0.0045886349294090
  11     0.0000098514524349
  12    -0.0042390002235849
  13     0.0232185450735157
  14     0.0000114733109993
  15    -0.0587884447927246
  16     0.0822798869189318
  17     5.0583512187031836
  18     0.1652234233516109
  19    -0.0000173810186664
  20     0.0001127772880906
  21     3.4311502606811222
  22    -0.0000712829125046
  23     0.0023127509380521
  24    -0.0031931883830459
  25    -0.0000112463447997
  26    -0.0035055141038214
  27    -0.0217725181083039
  28    -0.0000055758875018
  29    -0.1176910400101970
  30    -0.2236380925721170
  31     0.0060480653528573
  32    -0.0072597927620665
  33    -0.0011410480495070
  34    -0.1177755285304439
  35    -0.2235573850920361
  36     0.0060374245081968
  37     0.0072598839573255
  38     0.0011476705254240
  39     0.1028853350086898
  40     0.2291434783750732
  41     0.0061448379373478
  42    -0.0067486162761949
  43     0.0010034148293682
  44     0.1030262737992171
  45     0.2289757222228112
  46     0.0061291665905605
  47     0.0067454177072767
  48    -0.0009942020606008
 Ene=    0.562835
 Spin=  Alpha
 Occup=    0.000000
   1    -0.0898055495834917
   2     0.7709881925778170
   3    -0.6020342210338211
   4    -0.3865333575341712
   5    -0.0000043078848284
   6    -0.0002434276635014
   7     0.7282437676125173
   8     0.0000492784129731
   9     0.0005252025619339
  10    -0.0290398408377640
  11     0.0000605912958966
  12     0.0008164894555317
  13     0.0412179841314282
  14    -0.0000183393842597
  15    -0.0907492430178770
  16     0.7884123018396545
  17    -0.7433853712292248
  18     0.3805094873609907
  19    -0.0000539313066160
  20     0.0002524657437578
  21    -0.7914761000451871
  22     0.0001655295155007
  23    -0.0005720900668614
  24    -0.0298963591182195
  25     0.0000627312906450
  26    -0.0008308297546749
  27     0.0412071755367241
  28     0.0000244073399227
  29    -0.0615613069279756
  30     0.1989052851885450
  31     0.0316791546185975
  32    -0.0032219348036300
  33    -0.0006499294970199
  34    -0.0613602487002147
  35     0.1988968451035963
  36     0.0317020475883844
  37     0.0032228800363818
  38     0.0006950968615688
  39    -0.0492090798772774
  40     0.1864963010998147
  41    -0.0324695940169268
  42     0.0034125202857882
  43    -0.0006839872969782
  44    -0.0495511240259193
  45     0.1868134414558370
  46    -0.0324387608237863
  47    -0.0034072953177017
  48     0.0006375623199268
 Ene=    0.613762
 Spin=  Alpha
 Occup=    0.000000
   1    -0.0792145467180079
   2     0.6900015866792438
   3    -1.9530961471330492
   4     0.1267328393246596
   5    -0.0002956373709661
   6     0.0002133652366183
   7    -0.6434030878517623
   8     0.0022020775549347
   9     0.0002984243093842
  10    -0.0576965222440245
  11     0.0000369879487644
  12     0.0081816859049322
  13    -0.0343303847919012
  14    -0.0004155785258150
  15    -0.0799133298341315
  16     0.6688633938936717
  17    -1.5660071700063434
  18    -0.1184009141236569
  19    -0.0002386878432397
  20    -0.0001845628743374
  21     0.8303526339257571
  22     0.0018923210374193
  23    -0.0001177163988852
  24    -0.0567176235760248
  25     0.0000457645492671
  26    -0.0055674729688518
  27    -0.0338531074928529
  28     0.0004236238712196
  29     0.4740501055427496
  30     0.4040182195024881
  31    -0.0155793917462998
  32     0.0105969425122092
  33    -0.0007337942551117
  34     0.4785726171728962
  35     0.4029609049293432
  36    -0.0151602826541409
  37    -0.0105726144184073
  38     0.0007635163660642
  39     0.4650782719102454
  40     0.3985699632909494
  41     0.0155917162132423
  42    -0.0097736297994250
  43    -0.0010214649548724
  44     0.4605122639637875
  45     0.4000222651213859
  46     0.0160127376492834
  47     0.0097919290287226
  48     0.0009996308819635
 Ene=    0.615188
 Spin=  Alpha
 Occup=    0.000000
   1     0.0003504282000020
   2    -0.0030705806689159
   3     0.0076899797890173
   4    -0.0004479765105459
   5    -0.0676301355363936
   6     0.0283898421344239
   7     0.0027009542336055
   8     0.5185873208799981
   9     0.1761678159126412
  10     0.0002495033019303
  11    -0.0013248489211119
  12    -0.0001001306003454
  13     0.0001322090829506
  14    -0.1017974933947245
  15     0.0003401704682477
  16    -0.0028325176478227
  17     0.0068280316787490
  18     0.0003883095186941
  19    -0.0659817110266662
  20    -0.0276992517471339
  21    -0.0025443236952145
  22     0.5170723328564197
  23    -0.1681527219351044
  24     0.0002304666441986
  25     0.0001856163800774
  26     0.0000926206601102
  27     0.0001316030523156
  28     0.1034746747773400
  29    -0.5617761015616349
  30     0.1403725034185838
  31    -0.0529271885930400
  32     0.0028059570727577
  33     0.0056453110017720
  34     0.5577842688749725
  35    -0.1437827783460669
  36     0.0530321837493729
  37     0.0028969886798145
  38     0.0057076717331672
  39     0.5706740068046324
  40    -0.1713352482509864
  41    -0.0523030010946262
  42     0.0027581332736822
  43    -0.0056311299067893
  44    -0.5741547180129429
  45     0.1680520627602318
  46     0.0522241011893796
  47     0.0026920356721920
  48    -0.0055680351947477
 Ene=    0.704153
 Spin=  Alpha
 Occup=    0.000000
   1    -0.0000011895367675
   2    -0.0000118151103632
   3     0.0001071182603350
   4    -0.0004637946850372
   5    -0.0713504114663175
   6     0.7023969243297733
   7     0.0004051063354514
   8     0.0832452863231999
   9    -0.6124375034008867
  10    -0.0000696949557858
  11    -0.0623450117265022
  12    -0.0000019480245357
  13     0.0000431601546075
  14    -0.0024812248647965
  15     0.0000011661860820
  16    -0.0000079221970087
  17    -0.0000111395187377
  18    -0.0004777996764430
  19     0.0597694047068945
  20     0.7035221685351079
  21     0.0003842611001488
  22    -0.0736749241839908
  23    -0.6126947419820283
  24     0.0000732067450109
  25     0.0622803425973230
  26    -0.0000027808761353
  27    -0.0000416503115076
  28    -0.0038210851534206
  29    -0.0142314749632008
  30     0.0419066512589265
  31     0.0030264256080144
  32    -0.0030090515406736
  33     0.0130069088820676
  34     0.0141838720490265
  35    -0.0419454138816438
  36    -0.0030402698603258
  37    -0.0030084328966700
  38     0.0130034482855233
  39    -0.0153377301816816
  40     0.0426420489787242
  41    -0.0028924713968493
  42     0.0027955706005936
  43     0.0126553791799329
  44     0.0153338511623281
  45    -0.0426743700495651
  46     0.0028738049429818
  47     0.0027964316444925
  48     0.0126606955649608
 Ene=    0.737617
 Spin=  Alpha
 Occup=    0.000000
   1    -0.0049001578739055
   2     0.5510990646343779
   3    -4.1067621349678172
   4     0.1662742321058136
   5     0.0000231883687775
   6     0.0001183843037810
   7     0.8117032057994431
   8    -0.0000132593243028
   9     0.0006106767017292
  10    -0.0679890746198909
  11     0.0000605423020982
  12     0.0208561125472278
  13    -0.0207118145194698
  14    -0.0000340070233124
  15     0.0042553689368019
  16    -0.5470862569337682
  17     4.1551013033410591
  18     0.1801411356330154
  19    -0.0000574608881042
  20     0.0001410773358430
  21     0.7477793111581393
  22     0.0003176128279925
  23     0.0004071899978909
  24     0.0697366731706559
  25    -0.0000631789581051
  26     0.0189063532808733
  27     0.0230901221449105
  28    -0.0000025679943234
  29     0.5659154172234985
  30     0.2710105698069692
  31    -0.0074293620270686
  32     0.0306305952857142
  33     0.0049340926267082
  34     0.5661212007396739
  35     0.2708660944778304
  36    -0.0073886183105705
  37    -0.0306360337791511
  38    -0.0049391182640713
  39    -0.5879441262366910
  40    -0.2833704154905893
  41    -0.0099884574285304
  42     0.0312413369068133
  43    -0.0044121639255755
  44    -0.5881416914571174
  45    -0.2835566402807990
  46    -0.0099923470712747
  47    -0.0312368097872181
  48     0.0043949887444795
 Ene=    0.806012
 Spin=  Alpha
 Occup=    0.000000
   1    -0.0000054019944747
   2     0.0000349657400156
   3    -0.0001244993691743
   4    -0.0005000309294558
   5    -0.0898185878295524
   6     0.7674059366904916
   7     0.0007479194049968
   8     0.1087121222289389
   9    -1.0909538537202854
  10     0.0000314435114212