[Molden Format]
[Atoms] Angs
 c       1                    6  6.795000000000e-01  0.000000000000e+00 -1.000000000000e-03
 c       2                    6 -6.632000000000e-01 -0.000000000000e+00 -1.900000000000e-03
 h       3                    1  1.240800000000e+00  9.362000000000e-01  8.860000000000e-02
 h       4                    1  1.240900000000e+00 -9.362000000000e-01 -8.990000000000e-02
 h       5                    1 -1.237900000000e+00 -9.340000000000e-01  7.180000000000e-02
 h       6                    1 -1.237600000000e+00  9.341000000000e-01 -7.640000000000e-02
[GTO]
1
 s           5
      1.238401693800e+03      5.517365048110e-03
      1.862900499200e+02      4.108882855595e-02
      4.225117634600e+01      1.822538212649e-01
      1.167655793200e+01      4.682845943743e-01
      3.593050648200e+00      4.457581733600e-01
 s           1
      4.024514736300e-01      1.000000000000e+00
 s           1
      1.309018266800e-01      1.000000000000e+00
 p           3
      9.468097062100e+00      5.688833201104e-02
      2.010354514200e+00      3.129405933647e-01
      5.477100470700e-01      7.606501650914e-01
 p           1
      1.526861379500e-01      1.000000000000e+00
 d           1
      8.000000000000e-01      1.000000000000e+00

2
 s           5
      1.238401693800e+03      5.517365048110e-03
      1.862900499200e+02      4.108882855595e-02
      4.225117634600e+01      1.822538212649e-01
      1.167655793200e+01      4.682845943743e-01
      3.593050648200e+00      4.457581733600e-01
 s           1
      4.024514736300e-01      1.000000000000e+00
 s           1
      1.309018266800e-01      1.000000000000e+00
 p           3
      9.468097062100e+00      5.688833201104e-02
      2.010354514200e+00      3.129405933647e-01
      5.477100470700e-01      7.606501650914e-01
 p           1
      1.526861379500e-01      1.000000000000e+00
 d           1
      8.000000000000e-01      1.000000000000e+00

3
 s           3
      1.301070100000e+01      3.348548481299e-02
      1.962257200000e+00      2.347218708812e-01
      4.445379600000e-01      8.137702852596e-01
 s           1
      1.219496200000e-01      1.000000000000e+00
 p           1
      8.000000000000e-01      1.000000000000e+00

4
 s           3
      1.301070100000e+01      3.348548481299e-02
      1.962257200000e+00      2.347218708812e-01
      4.445379600000e-01      8.137702852596e-01
 s           1
      1.219496200000e-01      1.000000000000e+00
 p           1
      8.000000000000e-01      1.000000000000e+00

5
 s           3
      1.301070100000e+01      3.348548481299e-02
      1.962257200000e+00      2.347218708812e-01
      4.445379600000e-01      8.137702852596e-01
 s           1
      1.219496200000e-01      1.000000000000e+00
 p           1
      8.000000000000e-01      1.000000000000e+00

6
 s           3
      1.301070100000e+01      3.348548481299e-02
      1.962257200000e+00      2.347218708812e-01
      4.445379600000e-01      8.137702852596e-01
 s           1
      1.219496200000e-01      1.000000000000e+00
 p           1
      8.000000000000e-01      1.000000000000e+00


[5D]
[7F]
[9G]
[MO]
 Ene=  -11.240792
 Spin=  Alpha
 Occup=    2.000000
   1     0.5580706059107002
   2     0.0176085848056118
   3    -0.0068857039631485
   4     0.0013344325622799
   5     0.0000000075076183
   6     0.0000008615978603
   7    -0.0009593241721841
   8     0.0000002536750523
   9    -0.0000005687592950
  10    -0.0004380404598132
  11     0.0000004875244708
  12     0.0001158760878799
  13    -0.0000028129706755
  14     0.0000000145450332
  15     0.8188685510072318
  16     0.0276842513573548
  17    -0.0152599045214332
  18    -0.0011077408083853
  19     0.0000000536185829
  20    -0.0000007730676475
  21     0.0001914917721949
  22    -0.0000005974735553
  23     0.0000001960471725
  24    -0.0010603978967058
  25     0.0000012560884404
  26    -0.0001652848148761
  27     0.0000592572479107
  28     0.0000003536379874
  29    -0.0010865182608059
  30     0.0025147535029141
  31    -0.0000381002189576
  32     0.0005471564569413
  33     0.0000490628227196
  34    -0.0010864225621597
  35     0.0025151610425443
  36    -0.0000380917412028
  37    -0.0005470707551827
  38    -0.0000491421730319
  39    -0.0017714203658472
  40     0.0039394222725383
  41    -0.0002736331944626
  42    -0.0009634112419795
  43     0.0000719499828998
  44    -0.0017710399119689
  45     0.0039400309918535
  46    -0.0002732388297539
  47     0.0009632222618801
  48    -0.0000723315545606
 Ene=  -11.239150
 Spin=  Alpha
 Occup=    2.000000
   1     0.8187507651463871
   2     0.0309831707310246
   3    -0.0246038332433066
   4    -0.0004119218768926
   5     0.0000000062210037
   6    -0.0000003535291483
   7     0.0018722401251604
   8     0.0000002326759362
   9     0.0000013623258511
  10    -0.0017575574242465
  11     0.0000020367663310
  12     0.0002414143279057
  13     0.0000539323274184
  14    -0.0000002250865758
  15    -0.5579116376083857
  16    -0.0223335580799933
  17     0.0203769345496275
  18    -0.0008491264646540
  19    -0.0000001326134490
  20    -0.0000005451022113
  21     0.0020415921759065
  22    -0.0000002418369851
  23     0.0000013344350273
  24     0.0014680038287150
  25    -0.0000017767033515
  26     0.0001361956593520
  27    -0.0000948638489395
  28    -0.0000002528481502
  29    -0.0020965629255065
  30     0.0045939122181890
  31     0.0008271936298031
  32     0.0011814806693934
  33     0.0001089274827500
  34    -0.0020965140115677
  35     0.0045939725341339
  36     0.0008273337017298
  37    -0.0011814979472528
  38    -0.0001079116847700
  39     0.0015163844338079
  40    -0.0033577708387121
  41     0.0007783143108673
  42     0.0008922529670347
  43    -0.0000674216570050
  44     0.0015165332740547
  45    -0.0033573997354746
  46     0.0007781434288355
  47    -0.0008923184036282
  48     0.0000684991421177
 Ene=   -1.016941
 Spin=  Alpha
 Occup=    2.000000
   1    -0.1999621418210222
   2     0.3821888812536822
   3     0.1199131017530441
   4    -0.1186772231787888
   5     0.0000016581756103
   6    -0.0000810323082236
   7    -0.0208396665187481
   8     0.0000021920733448
   9    -0.0000140718911107
  10    -0.0099206498002126
  11     0.0000208656515571
  12     0.0004315365508362
  13     0.0139216878589644
  14    -0.0000004011528480
  15    -0.1992091161091285
  16     0.3813826371613087
  17     0.1209357181098804
  18     0.1191517318876219
  19     0.0000056965546859
  20     0.0000783921001651
  21     0.0218645184673390
  22    -0.0000018417625310
  23     0.0000144530643896
  24    -0.0099737921327127
  25     0.0000209123665399
  26    -0.0003696064307878
  27     0.0140516712328163
  28     0.0000004107526809
  29     0.1068720765786814
  30     0.0096626526334396
  31    -0.0092031156068961
  32    -0.0132067057341510
  33    -0.0013417560388358
  34     0.1068718852051093
  35     0.0096632215530568
  36    -0.0092045211669607
  37     0.0132068647197940
  38     0.0013301069506605
  39     0.1051361889982567
  40     0.0097329656025245
  41     0.0091518205120751
  42     0.0128710248384162
  43    -0.0010928543841219
  44     0.1051506001546042
  45     0.0097351057711262
  46     0.0091492783191869
  47    -0.0128743717063048
  48     0.0011056620047039
 Ene=   -0.777957
 Spin=  Alpha
 Occup=    2.000000
   1    -0.1520271072548575
   2     0.3044562044511800
   3     0.1155490393163358
   4     0.1580892819844895
   5    -0.0000061474805075
   6     0.0001021478053485
   7     0.0666311761421434
   8    -0.0000021842266140
   9     0.0000439868921893
  10    -0.0047567714672691
  11    -0.0000021299916767
  12     0.0016399831278162
  13    -0.0108177040602721
  14    -0.0000006242914732
  15     0.1528934885919146
  16    -0.3065237205196648
  17    -0.1167213287337226
  18     0.1599562199628014
  19    -0.0000107077012330
  20     0.0001086035951845
  21     0.0668230755723918
  22     0.0000003709402666
  23     0.0000446318132374
  24     0.0048595224487189
  25     0.0000012809290067
  26     0.0013255160763933
  27     0.0106083098635935
  28    -0.0000021006502713
  29     0.1926396853521433
  30     0.0383946715153943
  31    -0.0070001997670531
  32    -0.0171749726433943
  33    -0.0018475284565240
  34     0.1926455030157795
  35     0.0383954292673841
  36    -0.0070027955780039
  37     0.0171753829572780
  38     0.0018390787632666
  39    -0.1939668465103554
  40    -0.0389469774346834
  41    -0.0072667208324051
  42    -0.0172311114038521
  43     0.0015704587103341
  44    -0.1939631348323358
  45    -0.0389488268892644
  46    -0.0072602506424001
  47     0.0172321146313791
  48    -0.0015806754853053
 Ene=   -0.637235
 Spin=  Alpha
 Occup=    2.000000
   1     0.0000015407446837
   2    -0.0000033894199463
   3     0.0000040152370785
   4    -0.0000247322277812
   5     0.3160272697590195
   6     0.0178689462918336
   7    -0.0000125514647414
   8     0.1223575028387605
   9     0.0055059185312214
  10     0.0000013508884928
  11     0.0014732685086106
  12     0.0000014232357793
  13    -0.0000003455107592
  14     0.0034205116290707
  15     0.0000063331670224
  16    -0.0000133919072701
  17    -0.0000205563435690
  18     0.0000361078108983
  19     0.3077449548284317
  20    -0.0116857054605299
  21     0.0000083781501529
  22     0.1218672993606232
  23    -0.0032092093140249
  24     0.0000017265130554
  25     0.0014661258277059
  26    -0.0000024600539423
  27    -0.0000037033667612
  28    -0.0028144059945568
  29     0.2119836956378166
  30     0.0593867625245313
  31    -0.0095292706387294
  32    -0.0098910110245933
  33    -0.0012391322039662
  34    -0.2119984994441002
  35    -0.0593896234298177
  36     0.0095307403314628
  37    -0.0098922205572027
  38    -0.0012273888205096
  39    -0.2042194583214108
  40    -0.0565767521093651
  41    -0.0093803588846608
  42    -0.0094634106792351
  43     0.0010354423913472
  44     0.2042083540488216
  45     0.0565730644986926
  46     0.0093769728949286
  47    -0.0094636910211068
  48     0.0010483817939727
 Ene=   -0.583108
 Spin=  Alpha
 Occup=    2.000000
   1    -0.0116992407519286
   2     0.0327853722000786
   3    -0.0275375310698170
   4    -0.4061363321750588
   5    -0.0000441137895471
   6    -0.0002695164681573
   7    -0.1466923002263431
   8    -0.0000185255488927
   9    -0.0000971883505896
  10     0.0015140728212032
  11     0.0000118872256117
  12    -0.0015260446364438
  13     0.0202006339564545
  14    -0.0000007775012260
  15    -0.0135968272081045
  16     0.0366864605037921
  17    -0.0259637396136590
  18     0.4052027968772185
  19     0.0000008478348949
  20     0.0002731465049197
  21     0.1458396412577727
  22     0.0000004091801807
  23     0.0000982588524065
  24     0.0015963150852784
  25     0.0000115116901149
  26     0.0011272384843820
  27     0.0197619926955101
  28    -0.0000047400111922
  29    -0.1694305830363390
  30    -0.0591160145126343
  31    -0.0012798062159961
  32     0.0117069663595985
  33     0.0012189946095579
  34    -0.1693623955493848
  35    -0.0590928201834911
  36    -0.0012817452170911
  37    -0.0117039768282176
  38    -0.0012207927184895
  39    -0.1686286309849256
  40    -0.0587952212951820
  41     0.0010205567873673
  42    -0.0116865299957061
  43     0.0010310808654239
  44    -0.1685776530026921
  45    -0.0587790826388395
  46     0.0010274797828338
  47     0.0116837502144690
  48    -0.0010297253982913
 Ene=   -0.506149
 Spin=  Alpha
 Occup=    2.000000
   1     0.0000067266789136
   2    -0.0000163103759842
   3     0.0000016895144149
   4     0.0000876383030655
   5    -0.2872669423185821
   6    -0.0625736165209946
   7     0.0000364189833438
   8    -0.1299292994695664
   9    -0.0321821313125796
  10     0.0000019380842790
  11     0.0020740648784356
  12    -0.0000176407400172
  13    -0.0000036052091433
  14    -0.0276277431646125
  15     0.0000037817255167
  16    -0.0000092632340446
  17    -0.0000121044047927
  18     0.0000039741902155
  19     0.2961938951791219
  20    -0.0582310701812288
  21    -0.0000005301228896
  22     0.1352732935021059
  23    -0.0302380551774664
  24    -0.0000031386212876
  25    -0.0024659409509184
  26    -0.0000195162801639
  27    -0.0000052646217078
  28    -0.0279502745610521
  29    -0.2533780141043011
  30    -0.1160743389365675
  31     0.0089237024698449
  32     0.0092281377758407
  33     0.0001915999679701
  34     0.2534090996118823
  35     0.1160874022043321
  36    -0.0089227722490653
  37     0.0092301957846516
  38     0.0001808261256938
  39    -0.2591097853044540
  40    -0.1190293534526860
  41    -0.0094113033303676
  42    -0.0092914188480277
  43     0.0000664152010239
  44     0.2591581181665428
  45     0.1190482961854643
  46     0.0094077614494038
  47    -0.0092967735474082
  48     0.0000797736739868
 Ene=   -0.372476
 Spin=  Alpha
 Occup=    2.000000
   1    -0.0000014089597282
   2     0.0000030943945756
   3     0.0000043984135481
   4    -0.0002417951607049
   5    -0.0589576458284385
   6     0.3782337277500858
   7    -0.0001922221783797
   8    -0.0396688404713892
   9     0.2968494985820480
  10    -0.0000324470093368
  11    -0.0278552079719357
  12    -0.0000026717522335
  13     0.0000183121577037
  14    -0.0045286153467985
  15    -0.0000002267704625
  16     0.0000001437539955
  17     0.0000030086756939
  18    -0.0002627371032626
  19     0.0530398695647789
  20     0.3788504543430191
  21    -0.0002049188026151
  22     0.0351000314601916
  23     0.2972398493116419
  24     0.0000321321274954
  25     0.0277339055608267
  26    -0.0000031481044031
  27    -0.0000196007874516
  28    -0.0050347983847342
  29    -0.0332948805059086
  30    -0.0240128858689537
  31     0.0003619240546830
  32    -0.0000981393102606
  33     0.0104978128136566
  34     0.0332961324393124
  35     0.0240162717104721
  36    -0.0003750408917101
  37    -0.0000982817606720
  38     0.0104973435788407
  39    -0.0336835402823727
  40    -0.0244219700371103
  41    -0.0004314739171317
  42    -0.0000710642963991
  43     0.0103598554350487
  44     0.0336878222858919
  45     0.0244246806048066
  46     0.0004165310886994
  47    -0.0000715654323183
  48     0.0103610768709063
 Ene=    0.160574
 Spin=  Alpha
 Occup=    0.000000
   1     0.0000026165816613
   2    -0.0000037702220831
   3    -0.0000257733058265
   4     0.0002213157458582
   5     0.0425618831257392
   6    -0.3425381912538630
   7     0.0004704414107900
   8     0.0975624718156091
   9    -0.7346763868314801
  10    -0.0000248082962013
  11    -0.0213743961472004
  12    -0.0000025201575633
  13     0.0000141249716965
  14    -0.0038154496155785
  15    -0.0000014114527683
  16     0.0000034013802914
  17    -0.0000041303495846
  18    -0.0002291233863414
  19     0.0376276213739749
  20     0.3433968403876457
  21    -0.0004956712776592
  22     0.0876208165501239
  23     0.7363878584716869
  24    -0.0000249941200344
  25    -0.0213500253341477
  26     0.0000033573965823
  27     0.0000148125223918
  28     0.0041153261489074
  29    -0.0227214847014587
  30    -0.0845123004784319
  31    -0.0009364742670390
  32     0.0021494380646826
  33    -0.0172464505649722
  34     0.0227332133868000
  35     0.0845471963392858
  36     0.0009593541228035
  37     0.0021500586586017
  38    -0.0172446409809597
  39     0.0228513634663197
  40     0.0856747180467647
  41    -0.0009005152199141
  42     0.0018725417294542
  43     0.0173429192038898
  44    -0.0228558229882779
  45    -0.0856838939607977
  46     0.0008776711016081
  47     0.0018728535702441
  48     0.0173415543070846
 Ene=    0.204129
 Spin=  Alpha
 Occup=    0.000000
   1     0.0728566621700783
   2    -0.1173667270297189
   3    -1.5647324001985063
   4    -0.1325664115319467
   5    -0.0000186287698791
   6    -0.0000860389105985
   7    -0.5434639903619098
   8    -0.0000750750821909
   9    -0.0003495230042476
  10     0.0027612140006274
  11    -0.0000060382319377
  12    -0.0013189858240989
  13    -0.0043247625827775
  14     0.0000009667529709
  15     0.0744633040959043
  16    -0.1200295749816111
  17    -1.5613453896465921
  18     0.1335098738330314
  19    -0.0000249159371206
  20     0.0000938461457664
  21     0.5667128283185923
  22    -0.0000991451813705
  23     0.0003969127669755
  24     0.0028481519903890
  25    -0.0000060513518723
  26     0.0013344957181011
  27    -0.0041806902032595
  28    -0.0000025056536881
  29     0.0065762567329995
  30     1.0965203569180908
  31    -0.0053013764194004
  32    -0.0015129266715055
  33    -0.0009312527471039
  34     0.0065708371542633
  35     1.0963381062207207
  36    -0.0053011438311178
  37     0.0015123573323605
  38     0.0009239855185531
  39     0.0060442441796139
  40     1.1101225891465198
  41     0.0050750888044954
  42     0.0017593076870276
  43    -0.0009146571409129
  44     0.0060577709518359
  45     1.1102684931243798
  46     0.0050724352390089
  47    -0.0017607792345106
  48     0.0009217984904448
 Ene=    0.231093
 Spin=  Alpha
 Occup=    0.000000
   1    -0.0000465012135102
   2     0.0000629497991562
   3     0.0008478592492922
   4    -0.0000075119800522
   5     0.2154789051102609
   6     0.0442505000365311
   7    -0.0000208701900062
   8     0.7581005917469296
   9     0.1788169308993728
  10     0.0000014507236272
  11     0.0023575952143572
  12    -0.0000078035599719
  13    -0.0000048537468090
  14    -0.0113017247891527
  15     0.0000574499760049
  16    -0.0000841936686144
  17    -0.0011291200314576
  18     0.0000929595401461
  19     0.2179597560156637
  20    -0.0406525813726737
  21     0.0003850244932553
  22     0.7463702964188587
  23    -0.1652883871159235
  24     0.0000033832634769
  25     0.0025341215447427
  26     0.0000072476203327
  27     0.0000019718982873
  28     0.0110677680617806
  29    -0.0262322150985984
  30    -1.1539233768627490
  31     0.0024465116869181
  32     0.0052199677345037
  33     0.0019069303536762
  34     0.0262211557273671
  35     1.1529143451336019
  36    -0.0024512561195045
  37     0.0052161746631428
  38     0.0019041062228550
  39     0.0259713265095358
  40     1.1372527904164353
  41     0.0024153541444317
  42     0.0050448299733494
  43    -0.0018057261192756
  44    -0.0259551141516551
  45    -1.1358574944944249
  46    -0.0024149219353919
  47     0.0050397451160366
  48    -0.0018088281048286
 Ene=    0.238161
 Spin=  Alpha
 Occup=    0.000000
   1     0.0950307367939365
   2    -0.1239104182773636
   3    -2.2418696815890899
   4    -0.0840585025868386
   5     0.0001234995657561
   6    -0.0000270246188405
   7    -0.1934588841143647
   8     0.0005132299359636
   9     0.0000023514790107
  10     0.0042967603556464
  11     0.0000014616339524
  12     0.0001674745106415
  13     0.0070862047227377
  14    -0.0000028185465984
  15    -0.0933959835724929
  16     0.1204539095696868
  17     2.2146998067341834
  18    -0.0844161004725623
  19     0.0001024915297577
  20    -0.0000796295476798
  21    -0.1944340980175337
  22     0.0003226525079543
  23    -0.0002373677756622
  24    -0.0042044145554065
  25     0.0000015325662643
  26     0.0004302312177915
  27    -0.0074057747697300
  28     0.0000061035136319
  29     0.0060285538263591
  30     1.2498915307562350
  31    -0.0000363509780882
  32    -0.0054163380284037
  33     0.0005602444686030
  34     0.0060436583891021
  35     1.2512853352692084
  36    -0.0000421075937804
  37     0.0054229199178223
  38    -0.0005581312836891
  39    -0.0062825652796247
  40    -1.2314257998981930
  41     0.0002759527200636
  42    -0.0056197869586570
  43    -0.0006485672577991
  44    -0.0062978945726572
  45    -1.2324214742267749
  46     0.0002743756115571
  47     0.0056247966033618
  48     0.0006473205014047
 Ene=    0.301992
 Spin=  Alpha
 Occup=    0.000000
   1    -0.0000040599386250
   2    -0.0000007831379956
   3     0.0004169588670456
   4     0.0000005223349680
   5     0.1932036789011173
   6     0.0251127064019416
   7    -0.0001376979078431
   8     1.5836401135715608
   9     0.0903573303090549
  10    -0.0000006818489736
  11     0.0001358984658413
  12     0.0000125315212114
  13    -0.0000023032121317
  14     0.0203848035552658
  15     0.0000077865746853
  16    -0.0000085802352936
  17    -0.0003809135352918
  18    -0.0000251981654974
  19    -0.1954564245106774
  20     0.0230486118345448
  21    -0.0002354755243167
  22    -1.5758789368186708
  23     0.0670440396495145
  24     0.0000022173622099
  25     0.0001149334242149
  26     0.0000140212869593
  27     0.0000016801649654
  28     0.0195517212008604
  29     0.0280423432259988
  30    -1.6202725446321347
  31     0.0132004200431697
  32     0.0093709931876252
  33     0.0011136179289191
  34    -0.0280375554800187
  35     1.6200102384785098
  36    -0.0132017570281671
  37     0.0093684516561092
  38     0.0010973872274234
  39     0.0255026659006196
  40    -1.6149213785677183
  41    -0.0131279067832667
  42    -0.0092140528065065
  43     0.0009818485698018
  44    -0.0254998266199847
  45     1.6151368453455717
  46     0.0131275220836278
  47    -0.0092148824370199
  48     0.0010001131172110
 Ene=    0.479836
 Spin=  Alpha
 Occup=    0.000000
   1     0.0583620682606680
   2    -0.0870417177474339
   3    -5.0314646292601122
   4     0.1530412080249551
   5     0.0000051370479464
   6     0.0000961160056644
   7     3.4581269620185231
   8     0.0000076073330109
   9     0.0022949196989972
  10     0.0057519469729463
  11     0.0000085276192115
  12    -0.0041216214842279
  13     0.0230767705892755
  14     0.0000110711830694
  15    -0.0583622718384314
  16     0.0833252553465230
  17     5.0506751458107626
  18     0.1570648825485921
  19    -0.0000166175702515
  20     0.0001098191077061
  21     3.4395721064907199
  22    -0.0000710172396893
  23     0.0023273774675740
  24    -0.0043419441053247
  25    -0.0000098574350824
  26    -0.0033728594410640
  27    -0.0215767876773062
  28    -0.0000052215891024
  29    -0.1256379781816066
  30    -0.2242345391243238
  31     0.0054872503835827
  32    -0.0070003898468730
  33    -0.0009478406006200
  34    -0.1257193674254634
  35    -0.2241528683424550
  36     0.0054767129610121
  37     0.0070003057690098
  38     0.0009534559195811
  39     0.1104077533876366
  40     0.2294945287959889
  41     0.0055827077837774
  42    -0.0064923783866897
  43     0.0008036803316636
  44     0.1105446723441400
  45     0.2293294581233262
  46     0.0055661444023276
  47     0.0064886112015610
  48    -0.0007950707598395
 Ene=    0.569305
 Spin=  Alpha
 Occup=    0.000000
   1    -0.0899399544267230
   2     0.7658778342793977
   3    -0.5718037699732224
   4    -0.3910225343873706
   5    -0.0000024805493851
   6    -0.0002497478297348
   7     0.7348510753266777
   8     0.0000479319212027
   9     0.0005136014408850
  10    -0.0293551527016680
  11     0.0000599344964725
  12     0.0007509332926416
  13     0.0403856721235867
  14    -0.0000182450896766
  15    -0.0908331077691949
  16     0.7835300903131240
  17    -0.7236969898189324
  18     0.3848931834222671
  19    -0.0000545300594723
  20     0.0002608364257104
  21    -0.8040486394314675
  22     0.0001756563344779
  23    -0.0005660513700226
  24    -0.0301403467534626
  25     0.0000623962480168
  26    -0.0007346712206027
  27     0.0404268037075270
  28     0.0000242548278632
  29    -0.0669907121249708
  30     0.1897191201925564
  31     0.0316835172607356
  32    -0.0031283631985913
  33    -0.0006361036192083
  34    -0.0667887194878376
  35     0.1897102362153091
  36     0.0317068806719049
  37     0.0031293567719665
  38     0.0006808337621722
  39    -0.0549585912659960
  40     0.1777021923605621
  41    -0.0325140062381311
  42     0.0033638832339371
  43    -0.0006507499924483
  44    -0.0553033012606194
  45     0.1780066577086166
  46    -0.0324820229646058
  47    -0.0033577495398237
  48     0.0006051775118787
 Ene=    0.614137
 Spin=  Alpha
 Occup=    0.000000
   1    -0.0810720102274836
   2     0.7001839278717070
   3    -1.9625596847665319
   4     0.1236210407038326
   5    -0.0000750753230403
   6     0.0001148413991138
   7    -0.6376407249425569
   8     0.0005365610965466
   9    -0.0003165500656317
  10    -0.0576612128560285
  11     0.0000406307224224
  12     0.0078774283535119
  13    -0.0333642520154778
  14    -0.0000872766463433
  15    -0.0818698093333910
  16     0.6805881721996792
  17    -1.5795380708109961
  18    -0.1157686917993905
  19    -0.0000225245548513
  20    -0.0000779221013718
  21     0.8268724067362360
  22     0.0002422643621408
  23     0.0004646773626196
  24    -0.0569209612489279
  25     0.0000458528466048
  26    -0.0053555815584975
  27    -0.0329822147855356
  28     0.0000898328550546
  29     0.4734808259495545
  30     0.4076605436525476
  31    -0.0147747601204481
  32     0.0097795715970014
  33    -0.0005633777110499
  34     0.4744000693765972
  35     0.4075291243429908
  36    -0.0146949682233873
  37    -0.0097726900754778
  38     0.0005559595333976
  39     0.4625838585112123
  40     0.4039447861169799
  41     0.0151602399733759
  42    -0.0090465291140555
  43    -0.0008022080557641
  44     0.4616985219750557
  45     0.4042846222401484
  46     0.0152460104845016
  47     0.0090480811563015
  48     0.0008176576249903
 Ene=    0.621778
 Spin=  Alpha
 Occup=    0.000000
   1     0.0000965444114023
   2    -0.0008592623314667
   3     0.0014471333027813
   4    -0.0000308757598846
   5    -0.0636908879812613
   6     0.0155341308682787
   7     0.0006446200282481
   8     0.5305239356951506
   9     0.1185794617060085
  10     0.0000632348799320
  11    -0.0022449688318826
  12    -0.0000729771903478
  13     0.0000215448511205
  14    -0.1012895168698523
  15     0.0000856206292708
  16    -0.0006874874012597
  17     0.0017446874673591
  18    -0.0000062363388695
  19    -0.0621917194939880
  20    -0.0146256302709084
  21     0.0000829636086835
  22     0.5286535320689215
  23    -0.1106989001576854
  24     0.0000467826139030
  25    -0.0006967395824337
  26     0.0000743917192038
  27     0.0000227741084029
  28     0.1029834839650446
  29    -0.5620446330778706
  30     0.1318828135946943
  31    -0.0539048709686742
  32     0.0034399000867377
  33     0.0045053862884087
  34     0.5611177264700298
  35    -0.1326995418311705
  36     0.0539107466424288
  37     0.0034615430165279
  38     0.0045742678137118
  39     0.5740144903245927
  40    -0.1598111736642568
  41    -0.0531702347999495
  42     0.0033240381471720
  43    -0.0044674968484084
  44    -0.5745006798885414
  45     0.1591026403108308
  46     0.0531917464296717
  47     0.0033221982585986
  48    -0.0043965917744780
 Ene=    0.705941
 Spin=  Alpha
 Occup=    0.000000
   1    -0.0000015730264323
   2    -0.0000095467057089
   3     0.0000899303414309
   4    -0.0004614010804656
   5    -0.0741053276466688
   6     0.7000330538199246
   7     0.0004113819957122
   8     0.1023398632101249
   9    -0.6124628958180671
  10    -0.0000692352793728
  11    -0.0627950627322584
  12    -0.0000017177094920
  13     0.0000437964976265
  14    -0.0020548582066267
  15     0.0000015326251021
  16    -0.0000140483569718
  17     0.0000163976917207
  18    -0.0004758859546220
  19     0.0626847869100098
  20     0.7013001160049112
  21     0.0003857987805036
  22    -0.0932623905403472
  23    -0.6133399872433719
  24     0.0000748844874449
  25     0.0627405636637612
  26    -0.0000024602674269
  27    -0.0000413166133666
  28    -0.0034238359305475
  29    -0.0116064696557575
  30     0.0285714186137289
  31     0.0037778104117797
  32    -0.0022355157386649
  33     0.0127346947981796
  34     0.0115524816228369
  35    -0.0286030201595546
  36    -0.0037917011715759
  37    -0.0022340561645899
  38     0.0127304043505956
  39    -0.0129146002871559
  40     0.0290577982901784
  41    -0.0036304223672584
  42     0.0020143501087096
  43     0.0123700575174432
  44     0.0128967097973862
  45    -0.0290923679463605
  46     0.0036119762790894
  47     0.0020141582840168
  48     0.0123768143249477
 Ene=    0.745389
 Spin=  Alpha
 Occup=    0.000000
   1     0.0061884779990219
   2    -0.5657124467435156
   3     4.2312220758510186
   4    -0.1670403126023520
   5    -0.0000222493155877
   6    -0.0001191527802512
   7    -0.8579797713486823
   8     0.0000030140109310
   9    -0.0006313391152741
  10     0.0659531993161594
  11    -0.0000590331262143
  12    -0.0196383468579108
  13     0.0201851111360556
  14     0.0000337440602043
  15    -0.0054283660753317
  16     0.5606120137037103
  17    -4.2764059531978491
  18    -0.1807368016129689
  19     0.0000605682221203
  20    -0.0001369037228267
  21    -0.7954612742783395
  22    -0.0003249865997251
  23    -0.0004544421511911
  24    -0.0675089839174036
  25     0.0000612440603800
  26    -0.0177189691794278
  27    -0.0224391393212830
  28     0.0000011975525282
  29    -0.5624275594119763
  30    -0.2848043397751152
  31     0.0070874060581376
  32    -0.0295325687495687
  33    -0.0051797935576717
  34    -0.5626430658880643
  35    -0.2846660841133194
  36     0.0070449265423895
  37     0.0295373794694981
  38     0.0051842098199420
  39     0.5833652922937015
  40     0.2965708528490905
  41     0.0095894777456797
  42    -0.0300704087706283
  43     0.0046838826471997
  44     0.5835689429830359
  45     0.2967637120908216
  46     0.0095930783748035
  47     0.0300650218790131
  48    -0.0046670731969416
 Ene=    0.814525
 Spin=  Alpha
 Occup=    0.000000
   1     0.0000077338964669
   2    -0.0000461406127700
   3     0.0001223735417307
   4     0.0005020637336294
   5     0.0885372730457796
   6    -0.7752556272834301
   7    -0.0007195232549902
   8    -0.0972203126375348
   9     1.0775029299322325
  10    -0.0000363390002546