[Molden Format]
[Atoms] Angs
 c       1                    6  6.550000000000e-01 -0.000000000000e+00 -1.000000000000e-03
 c       2                    6 -6.550000000000e-01  0.000000000000e+00 -5.000000000000e-04
 h       3                    1  1.195000000000e+00  9.353000000000e-01  0.000000000000e+00
 h       4                    1  1.195000000000e+00 -9.353000000000e-01  2.200000000000e-03
 h       5                    1 -1.195000000000e+00 -9.353000000000e-01 -1.500000000000e-03
 h       6                    1 -1.195000000000e+00  9.353000000000e-01  8.000000000000e-04
[GTO]
1
 s           5
      1.238401693800e+03      5.517365048110e-03
      1.862900499200e+02      4.108882855595e-02
      4.225117634600e+01      1.822538212649e-01
      1.167655793200e+01      4.682845943743e-01
      3.593050648200e+00      4.457581733600e-01
 s           1
      4.024514736300e-01      1.000000000000e+00
 s           1
      1.309018266800e-01      1.000000000000e+00
 p           3
      9.468097062100e+00      5.688833201104e-02
      2.010354514200e+00      3.129405933647e-01
      5.477100470700e-01      7.606501650914e-01
 p           1
      1.526861379500e-01      1.000000000000e+00
 d           1
      8.000000000000e-01      1.000000000000e+00

2
 s           5
      1.238401693800e+03      5.517365048110e-03
      1.862900499200e+02      4.108882855595e-02
      4.225117634600e+01      1.822538212649e-01
      1.167655793200e+01      4.682845943743e-01
      3.593050648200e+00      4.457581733600e-01
 s           1
      4.024514736300e-01      1.000000000000e+00
 s           1
      1.309018266800e-01      1.000000000000e+00
 p           3
      9.468097062100e+00      5.688833201104e-02
      2.010354514200e+00      3.129405933647e-01
      5.477100470700e-01      7.606501650914e-01
 p           1
      1.526861379500e-01      1.000000000000e+00
 d           1
      8.000000000000e-01      1.000000000000e+00

3
 s           3
      1.301070100000e+01      3.348548481299e-02
      1.962257200000e+00      2.347218708812e-01
      4.445379600000e-01      8.137702852596e-01
 s           1
      1.219496200000e-01      1.000000000000e+00
 p           1
      8.000000000000e-01      1.000000000000e+00

4
 s           3
      1.301070100000e+01      3.348548481299e-02
      1.962257200000e+00      2.347218708812e-01
      4.445379600000e-01      8.137702852596e-01
 s           1
      1.219496200000e-01      1.000000000000e+00
 p           1
      8.000000000000e-01      1.000000000000e+00

5
 s           3
      1.301070100000e+01      3.348548481299e-02
      1.962257200000e+00      2.347218708812e-01
      4.445379600000e-01      8.137702852596e-01
 s           1
      1.219496200000e-01      1.000000000000e+00
 p           1
      8.000000000000e-01      1.000000000000e+00

6
 s           3
      1.301070100000e+01      3.348548481299e-02
      1.962257200000e+00      2.347218708812e-01
      4.445379600000e-01      8.137702852596e-01
 s           1
      1.219496200000e-01      1.000000000000e+00
 p           1
      8.000000000000e-01      1.000000000000e+00


[5D]
[7F]
[9G]
[MO]
 Ene=  -11.245756
 Spin=  Alpha
 Occup=    2.000000
   1     0.7017986412782947
   2     0.0231564697085965
   3    -0.0116011388025620
   4     0.0009909031438037
   5     0.0000000165980161
   6     0.0000083493434473
   7    -0.0004548235271731
   8    -0.0000000050178023
   9    -0.0000113370683382
  10    -0.0008595868302695
  11     0.0000017514011397
  12    -0.0000027389925899
  13     0.0001634243942832
  14     0.0000000130206268
  15     0.6994719842133905
  16     0.0230643427128933
  17    -0.0115220476125688
  18    -0.0009940428564913
  19     0.0000000286967920
  20    -0.0000026514297758
  21     0.0004617522170787
  22    -0.0000000090196110
  23     0.0000043479442459
  24    -0.0008538800994685
  25    -0.0000010647592534
  26     0.0000027975872507
  27     0.0001637924072078
  28     0.0000000013926348
  29    -0.0014039374934163
  30     0.0034084050853950
  31     0.0000289656395242
  32     0.0006795194365021
  33     0.0000011855662450
  34    -0.0014039143593908
  35     0.0034083932248280
  36     0.0000289681600178
  37    -0.0006795210018536
  38     0.0000030668130148
  39    -0.0013972516662426
  40     0.0033941666401743
  41    -0.0000260855652772
  42    -0.0006760166334361
  43    -0.0000009098608076
  44    -0.0013972561014002
  45     0.0033941746282396
  46    -0.0000260914872007
  47     0.0006760261793612
  48     0.0000010346005084
 Ene=  -11.244068
 Spin=  Alpha
 Occup=    2.000000
   1    -0.6993649080055782
   2    -0.0277152600811779
   3     0.0237839347243762
   4     0.0009487659605026
   5    -0.0000000347763475
   6    -0.0000114308205409
   7    -0.0020789652271847
   8     0.0000000842935777
   9     0.0000128298973604
  10     0.0017167045112847
  11    -0.0000026892693719
  12     0.0000035393036379
  13     0.0001101844153276
  14    -0.0000000155261838
  15     0.7016918947187756
  16     0.0277920655702012
  17    -0.0238224044032378
  18     0.0009454667551962
  19     0.0000000206812862
  20    -0.0000038241403540
  21    -0.0020774208191130
  22    -0.0000000555125163
  23    -0.0000004422662882
  24    -0.0017195505217293
  25    -0.0000016496861794
  26     0.0000037135233269
  27    -0.0001096490262269
  28    -0.0000000024899715
  29     0.0020101268983322
  30    -0.0042800664208317
  31    -0.0008661869840081
  32    -0.0010513738461043
  33    -0.0000018680874185
  34     0.0020101126621258
  35    -0.0042799643031327
  36    -0.0008661881994308
  37     0.0010513702382278
  38    -0.0000045941120333
  39    -0.0020147867538764
  40     0.0042913319019041
  41    -0.0008662809865189
  42    -0.0010536168822129
  43    -0.0000008081205253
  44    -0.0020147930156324
  45     0.0042913755363315
  46    -0.0008662859664395
  47     0.0010536277522062
  48     0.0000020367702003
 Ene=   -1.042143
 Spin=  Alpha
 Occup=    2.000000
   1     0.2021574017551116
   2    -0.3840560643454083
   3    -0.1063850698529487
   4     0.1360729303177961
   5     0.0000013733496719
   6    -0.0000398760674076
   7     0.0218739728488228
   8     0.0000008395814231
   9     0.0000477597152187
  10     0.0116200618344100
  11     0.0000092716251811
  12     0.0000099345074785
  13    -0.0155232322650140
  14     0.0000001192833914
  15     0.2021564727093878
  16    -0.3840525332700282
  17    -0.1063880024983563
  18    -0.1360727224799645
  19    -0.0000018794547458
  20     0.0002059893007738
  21    -0.0218749710833515
  22    -0.0000014569541853
  23     0.0001488377688369
  24     0.0116198944078889
  25     0.0000224383657591
  26    -0.0000101808051486
  27    -0.0155232204226454
  28     0.0000000557397351
  29    -0.1044189131804179
  30    -0.0098935389265503
  31     0.0100974772813707
  32     0.0135409031574891
  33     0.0000144088659485
  34    -0.1044206327787471
  35    -0.0098943545408420
  36     0.0100974354530307
  37    -0.0135408725480414
  38     0.0000397390789111
  39    -0.1044180846201807
  40    -0.0098931275155477
  41    -0.0100973768298543
  42    -0.0135408518519092
  43    -0.0000036200124592
  44    -0.1044207262291268
  45    -0.0098939064646824
  46    -0.0100975620608938
  47     0.0135409428930377
  48     0.0000231577356354
 Ene=   -0.784500
 Spin=  Alpha
 Occup=    2.000000
   1    -0.1536714369921508
   2     0.3036246899685527
   3     0.1465241759642361
   4     0.1601193492113400
   5    -0.0000048252730707
   6    -0.0003930150689532
   7     0.0524730592639155
   8    -0.0000034136015394
   9    -0.0005036031015984
  10    -0.0032013959862421
  11     0.0000821143574970
  12    -0.0000368172714139
  13    -0.0132563363644298
  14    -0.0000003599316569
  15     0.1536719409353547
  16    -0.3036241601951328
  17    -0.1465210049893687
  18     0.1601079214524255
  19     0.0000086265478906
  20    -0.0006702971607510
  21     0.0524676993526684
  22     0.0000037970928630
  23    -0.0004511695313094
  24     0.0032014222070217
  25    -0.0000441756910198
  26    -0.0000378206139933
  27     0.0132557481536196
  28    -0.0000006286690369
  29     0.1939781220637204
  30     0.0360514646207426
  31    -0.0069445206449948
  32    -0.0177065014474513
  33    -0.0000296320878719
  34     0.1939858413897903
  35     0.0360567785060812
  36    -0.0069448134047572
  37     0.0177064970800609
  38    -0.0000696567064207
  39    -0.1939858637539275
  40    -0.0360583224391938
  41    -0.0069450736447586
  42    -0.0177065383923412
  43    -0.0000330144807987
  44    -0.1939727786098570
  45    -0.0360515479906098
  46    -0.0069445393846344
  47     0.0177062024890208
  48     0.0000089025113559
 Ene=   -0.661750
 Spin=  Alpha
 Occup=    2.000000
   1    -0.0000019971705388
   2     0.0000048669638810
   3     0.0000159362187036
   4    -0.0000000220677931
   5    -0.3180932166945732
   6     0.0000354952530136
   7     0.0000038621360287
   8    -0.1213733986290121
   9    -0.0004293373088527
  10     0.0000002569286956
  11     0.0000192246555183
  12    -0.0001040496334694
  13     0.0000001615401271
  14    -0.0001272507638513
  15    -0.0000000180757035
  16     0.0000004447782320
  17     0.0000078145156391
  18     0.0000008260120735
  19    -0.3180892079487537
  20    -0.0000526507942788
  21    -0.0000047667467894
  22    -0.1213723180679221
  23     0.0004227447973914
  24     0.0000001100532298
  25     0.0000192197682060
  26     0.0000123599936995
  27     0.0000003880370822
  28     0.0001270131105520
  29    -0.2050812049339748
  30    -0.0489413734670470
  31     0.0100401660562973
  32     0.0098418381530561
  33    -0.0000067532960673
  34     0.2050803758338325
  35     0.0489243742403892
  36    -0.0100400531930218
  37     0.0098419097040756
  38    -0.0000554758443099
  39     0.2050761614948321
  40     0.0489236751631365
  41     0.0100398792273271
  42     0.0098417195258224
  43     0.0000191878334479
  44    -0.2050805445224022
  45    -0.0489397912861737
  46    -0.0100401177767739
  47     0.0098418376595329
  48     0.0000440848774530
 Ene=   -0.596081
 Spin=  Alpha
 Occup=    2.000000
   1     0.0081780125728852
   2    -0.0269296805070071
   3     0.0388731087493066
   4     0.4102078938932123
   5     0.0000087679084135
   6     0.0010334143710533
   7     0.1385038850910375
   8     0.0000039943497827
   9     0.0008143499833712
  10    -0.0003929537593934
  11     0.0000291784666999
  12    -0.0000273155156385
  13    -0.0229171920704119
  14     0.0000010388453836
  15     0.0081745546368626
  16    -0.0269222680370746
  17     0.0388779730684438
  18    -0.4102086809377670
  19    -0.0000112805692003
  20     0.0008307033579889
  21    -0.1385042081811564
  22    -0.0000046708168647
  23     0.0003001070974660
  24    -0.0003933287904325
  25     0.0000903575854208
  26     0.0000285817483690
  27    -0.0229173917451307
  28     0.0000007788101652
  29     0.1704438595893938
  30     0.0566938125185756
  31     0.0014939156785803
  32    -0.0113949353295962
  33     0.0000249217888021
  34     0.1704295292542940
  35     0.0566876720664966
  36     0.0014943452659059
  37     0.0113944484149793
  38    -0.0000087960051422
  39     0.1704480630843465
  40     0.0566951001290945
  41    -0.0014937020938304
  42     0.0113951210907124
  43     0.0000322064005895
  44     0.1704311443096264
  45     0.0566870650155423
  46    -0.0014944078498544
  47    -0.0113946522475864
  48    -0.0000027306569777
 Ene=   -0.513181
 Spin=  Alpha
 Occup=    2.000000
   1    -0.0000032351739960
   2     0.0000074564010797
   3     0.0000006827083284
   4    -0.0000006568788952
   5     0.3032398341421887
   6    -0.0040790155147388
   7     0.0000023944184376
   8     0.1318512785889948
   9    -0.0028084352283936
  10    -0.0000009739622865
  11     0.0002563564796044
  12     0.0000984897664058
  13     0.0000002211616782
  14     0.0275790192811546
  15     0.0000008015752869
  16    -0.0000014183468290
  17     0.0000009846188571
  18     0.0000031074274356
  19    -0.3032421383996091
  20    -0.0040952710623878
  21     0.0000016293695010
  22    -0.1318525977067905
  23    -0.0028155396641940
  24     0.0000003834980837
  25    -0.0002548794459265
  26     0.0000119519625939
  27     0.0000001815474835
  28     0.0275789174365136
  29     0.2598824873383995
  30     0.1160728292341494
  31    -0.0094855644296432
  32    -0.0091622752140828
  33    -0.0001129356448225
  34    -0.2598862737060878
  35    -0.1160739376443339
  36     0.0094859869109750
  37    -0.0091627357259449
  38    -0.0000600262655096
  39     0.2598836487253804
  40     0.1160740180266761
  41     0.0094858527834370
  42     0.0091623335923905
  43    -0.0000977184279999
  44    -0.2598891545443083
  45    -0.1160736735238427
  46    -0.0094858948775751
  47     0.0091627823487681
  48    -0.0000742691074153
 Ene=    0.000000
 Spin=  Alpha
 Occup=    1.469820
   1    -0.0002135468429230
   2     0.0004232535101182
   3     0.0004709287107600
   4    -0.0006757002338243
   5     0.0032869026059225
   6     0.3807026555693518
   7    -0.0001990297717138
   8     0.0014787445226443
   9     0.2959139346342340
  10     0.0000993711098682
  11    -0.0355554531244683
  12     0.0000012755991563
  13     0.0000420022592540
  14     0.0003077339761557
  15     0.0001729122894957
  16    -0.0003889286898867
  17    -0.0006443534913727
  18     0.0014799311007241
  19    -0.0033074165095956
  20     0.3807194328216651
  21     0.0006468304594616
  22    -0.0014946683027975
  23     0.2959411923093933
  24    -0.0000508015475983
  25     0.0355541658439278
  26     0.0000003224338926
  27     0.0000683519344352
  28     0.0003058280587356
  29     0.0026762355665471
  30     0.0007408204435430
  31    -0.0001267723637990
  32    -0.0001198804203716
  33     0.0095220407128375
  34    -0.0026298518820242
  35    -0.0019597962361976
  36     0.0000261620829680
  37    -0.0000392803520055
  38     0.0095227911171392
  39     0.0021199350844294
  40     0.0015079369526456
  41     0.0000821980087665
  42     0.0000253539160555
  43     0.0095230527261010
  44    -0.0031862849714658
  45    -0.0011926721441673
  46    -0.0000707467389853
  47     0.0001327913893837
  48     0.0095235273997309
 Ene=    0.000000
 Spin=  Alpha
 Occup=    0.530180
   1     0.0013767523629302
   2    -0.0034991115795938
   3    -0.0179839341858989
   4    -0.0018180945259391
   5    -0.0000169508524077
   6     0.3514928817127327
   7    -0.0054205000449051
   8     0.0021632520336235
   9     0.7617088484760244
  10    -0.0000460683284972
  11     0.0200830587563936
  12     0.0000004069853003
  13    -0.0000802115954636
  14    -0.0003789830749826
  15     0.0008259732583921
  16    -0.0021915416199889
  17    -0.0120802337676600
  18     0.0020668566403664
  19     0.0000016430026319
  20    -0.3514810803190211
  21     0.0059153806305495
  22     0.0022037412940848
  23    -0.7617160714478004
  24    -0.0000505727348728
  25     0.0200822931426972
  26    -0.0000008486402092
  27    -0.0001587132102559
  28     0.0003779205144376
  29    -0.0001523675655436
  30     0.0103607222891042
  31    -0.0001489844853306
  32     0.0001248160421029
  33     0.0186605657102466
  34     0.0021235683925046
  35     0.0125966805280974
  36     0.0000168952963877
  37     0.0000485597057526
  38     0.0186598115913284
  39     0.0015652751674930
  40     0.0109515935991232
  41    -0.0000038833714458
  42    -0.0000040642605006
  43    -0.0186592276608436
  44    -0.0007108238879173
  45     0.0087159954652450
  46     0.0001619895045694
  47     0.0001794433598132
  48    -0.0186598034353287
 Ene=    0.202505
 Spin=  Alpha
 Occup=    0.000000
   1    -0.0739294462567054
   2     0.1215259056794540
   3     1.5843690525598118
   4     0.1281417993620490
   5     0.0000127380151405
   6     0.0040378471824724
   7     0.5466054306558679
   8     0.0000417737709679
   9     0.0103154285645940
  10    -0.0021180744165483
  11     0.0002400125262046
  12    -0.0000165939837078
  13     0.0040747085179363
  14    -0.0000013043353131
  15    -0.0739305338009872
  16     0.1215285348192598
  17     1.5843165032319755
  18    -0.1281423714212845
  19     0.0000145643976634
  20    -0.0036662492584282
  21    -0.5466225001983748
  22     0.0000409389207623
  23    -0.0086712799903703
  24    -0.0021182865132923
  25     0.0002308324278310
  26     0.0000165699354858
  27     0.0040748654594819
  28     0.0000012388991487
  29    -0.0067625191531572
  30    -1.1085932715433646
  31     0.0052916996575623
  32     0.0013405215798088
  33     0.0001551012075092
  34    -0.0067533235968498
  35    -1.1084870266236924
  36     0.0052916541649391
  37    -0.0013398102955782
  38     0.0001929850711845
  39    -0.0067583986212953
  40    -1.1084638660433126
  41    -0.0052916364978330
  42    -0.0013400753658620
  43    -0.0001923802249616
  44    -0.0067659648579798
  45    -1.1085698426849426
  46    -0.0052914991863853
  47     0.0013406673986873
  48    -0.0001543538557057
 Ene=    0.225965
 Spin=  Alpha
 Occup=    0.000000
   1    -0.0000040069375720
   2     0.0000059246083681
   3     0.0000905303854483
   4     0.0000056446046445
   5    -0.2162447841405431
   6     0.0004867558517705
   7     0.0000194016830589
   8    -0.7698577220403950
   9     0.0022570434597496
  10    -0.0000000480971337
  11     0.0000244144303507
  12    -0.0000300233185614
  13     0.0000000894697701
  14     0.0133389641312626
  15    -0.0000012995329530
  16     0.0000026865638539
  17     0.0000192726471495
  18    -0.0000033781515669
  19    -0.2162395045619928
  20    -0.0004982951373049
  21    -0.0000191682446753
  22    -0.7698403576484270
  23    -0.0022981031781209
  24    -0.0000000365738702
  25     0.0000237015745013
  26     0.0000236163528070
  27     0.0000003039893390
  28    -0.0133390384388260
  29     0.0282735574458550
  30     1.1662700023272423
  31    -0.0031093819378515
  32    -0.0049939906428097
  33     0.0000313561102829
  34    -0.0282743842142092
  35    -1.1663850078957871
  36     0.0031099507782207
  37    -0.0049942877402360
  38     0.0000128992245040
  39    -0.0282735929571495
  40    -1.1663290636298596
  41    -0.0031099293478797
  42    -0.0049941702082164
  43    -0.0000226184375713
  44     0.0282735991505717
  45     1.1662863644678167
  46     0.0031094081199571
  47    -0.0049940155772452
  48    -0.0000221719270362
 Ene=    0.243823
 Spin=  Alpha
 Occup=    0.000000
   1     0.0920982626668780
   2    -0.1197859803293646
   3    -2.3768091464971124
   4    -0.0858425950708085
   5    -0.0000027453395397
   6    -0.0005469171414152
   7    -0.1625011749260463
   8    -0.0000226088019910
   9    -0.0029979768134635
  10     0.0038397789337956
  11    -0.0000134751457921
  12    -0.0000143200253649
  13     0.0089420079311987
  14     0.0000002275697340
  15    -0.0921009995900994
  16     0.1197896734408947
  17     2.3768773844902618
  18    -0.0858457603980079
  19    -0.0000047066488292
  20     0.0003707503224453
  21    -0.1625242720054654
  22    -0.0000061455160786
  23     0.0014153376818226
  24    -0.0038400003488990
  25    -0.0000472402835398
  26    -0.0000134833781935
  27    -0.0089417548779777
  28    -0.0000003059824468
  29     0.0019310262953357
  30     1.2916982217369484
  31    -0.0005581403247027
  32    -0.0058912949236464
  33     0.0000066378768621
  34     0.0019284091536336
  35     1.2916354047175200
  36    -0.0005577882808456
  37     0.0058910553090531
  38     0.0000198092525266
  39    -0.0019298030595779
  40    -1.2917215341109514
  41    -0.0005582220037199
  42    -0.0058913897476538
  43     0.0000364402515745
  44    -0.0019305907744623
  45    -1.2917014797672948
  46    -0.0005583690069773
  47     0.0058911195940210
  48     0.0000239034857594
 Ene=    0.302279
 Spin=  Alpha
 Occup=    0.000000
   1     0.0000001918529611
   2     0.0000003385070409
   3     0.0000037572596135
   4    -0.0000005909875616
   5     0.1914999318460050
   6    -0.0004119416927552
   7     0.0000013244660282
   8     1.6570167221471876
   9    -0.0010277826640316
  10    -0.0000002733516038
  11     0.0000183458725694
  12     0.0000776552256696
  13    -0.0000002038840041
  14     0.0180071547171099
  15    -0.0000004808311723
  16     0.0000005250868212
  17     0.0000107929902362
  18    -0.0000006670854364
  19    -0.1915023265513659
  20    -0.0004221149045465
  21    -0.0000030855774089
  22    -1.6570350890288559
  23    -0.0011162786178964
  24     0.0000001355730008
  25    -0.0000173858594130
  26    -0.0000353144015477
  27     0.0000000980511550
  28     0.0180072119335256
  29     0.0223596417726653
  30    -1.6871338959783413
  31     0.0123275852751844
  32     0.0094329660224925
  33     0.0000043561397401
  34    -0.0223577463880187
  35     1.6871288039276955
  36    -0.0123276461144980
  37     0.0094327878921027
  38    -0.0000303908314731
  39     0.0223586406260019
  40    -1.6871641464833893
  41    -0.0123279690614890
  42    -0.0094331089351856
  43     0.0000200362533029
  44    -0.0223608843205444
  45     1.6871525830806715
  46     0.0123276794835328
  47    -0.0094330966474446
  48    -0.0000470731830318
 Ene=    0.484634
 Spin=  Alpha
 Occup=    0.000000
   1    -0.0530859424638963
   2     0.0826713989485047
   3     5.5679539227896244
   4    -0.1523220977838914
   5     0.0000001350413636
   6    -0.0001726045081524
   7    -3.6042892536279174
   8    -0.0000028300904982
   9     0.0009465671608913
  10    -0.0065642767704109
  11     0.0000118094609802
  12    -0.0000661493260393
  13    -0.0236782117177337
  14    -0.0000000320005187
  15     0.0530869683936764
  16    -0.0826742222473105
  17    -5.5679679172578007
  18    -0.1523227218052457
  19     0.0000002779836572
  20    -0.0001269736591256
  21    -3.6042798310630659
  22     0.0000014164678771
  23     0.0015484217002263
  24     0.0065645229985475
  25    -0.0000510172461230
  26    -0.0000680225920219
  27     0.0236777257525987
  28    -0.0000002577679501
  29     0.1279284291266346
  30     0.1893439767143766
  31    -0.0034919355909105
  32     0.0080369289550160
  33    -0.0000356084329877
  34     0.1279292319650784
  35     0.1893319895133495
  36    -0.0034918684134762
  37    -0.0080367363281506
  38    -0.0000005797371366
  39    -0.1279275656580497
  40    -0.1893249136280744
  41    -0.0034912484284869
  42     0.0080365821518902
  43     0.0000267293324311
  44    -0.1279260456964027
  45    -0.1893336398640253
  46    -0.0034919212753727
  47    -0.0080369145727375
  48    -0.0000091578926481
 Ene=    0.553085
 Spin=  Alpha
 Occup=    0.000000
   1    -0.0779063788774351
   2     0.6865866824100649
   3    -0.4753348688697388
   4    -0.3835043569479734
   5     0.0000011577569036
   6     0.0000830749305786
   7     0.8604396350705054
   8    -0.0000028153375593
   9     0.0005902878030948
  10    -0.0196855438545594
  11     0.0000078586144142
  12     0.0000008121269205
  13     0.0405609007677931
  14     0.0000008312473921
  15    -0.0779057545333735
  16     0.6865849010650528
  17    -0.4753594269309825
  18     0.3835009527593897
  19     0.0000019242952189
  20    -0.0002098891645773
  21    -0.8604552208272082
  22    -0.0000056133488847
  23    -0.0004264571851951
  24    -0.0196858285827835
  25    -0.0000191603783501
  26    -0.0000011550336002
  27     0.0405607478579728
  28    -0.0000005810001783
  29    -0.1125234413954233
  30     0.1652350398976580
  31     0.0276548993492948
  32    -0.0037201395577553
  33     0.0000130619061515
  34    -0.1125324894758452
  35     0.1652404297239679
  36     0.0276538841963882
  37     0.0037200386626532
  38    -0.0000041831892074
  39    -0.1125311807848260
  40     0.1652358425510370
  41    -0.0276537916803992
  42     0.0037196718750994
  43     0.0000210294139450
  44    -0.1125228229222969
  45     0.1652355596311607
  46    -0.0276549437515628
  47    -0.0037201913392290
  48     0.0000033868903070
 Ene=    0.603699
 Spin=  Alpha
 Occup=    0.000000
   1    -0.0917028571168722
   2     0.7823482426891363
   3    -1.8375647751241924
   4     0.0738502627316186
   5     0.0000038848219190
   6    -0.0005641998716809
   7    -0.5998092864687745
   8    -0.0000342722461214
   9    -0.0021148965898364
  10    -0.0613555259357727
  11     0.0001034967761546
  12    -0.0000865416343784
  13    -0.0292282373625171
  14     0.0000046920470863
  15    -0.0917024831762779
  16     0.7823485077615402
  17    -1.8375634118872848
  18    -0.0738515267223645
  19     0.0000028870662000
  20    -0.0004027078705486
  21     0.5998187769166942
  22    -0.0000227229687523
  23     0.0012683931727221
  24    -0.0613559247851165
  25    -0.0001360127861870
  26     0.0000938044148974
  27    -0.0292283626806817
  28    -0.0000048441161622
  29     0.4482536252337696
  30     0.4247889610132357
  31    -0.0084541280008801
  32     0.0104891502484168
  33    -0.0001450369348383
  34     0.4482028429228621
  35     0.4247864379987926
  36    -0.0084590693142293
  37    -0.0104893642122664
  38    -0.0001862396439762
  39     0.4482066131930275
  40     0.4247947008739636
  41     0.0084592141397689
  42    -0.0104896519025362
  43     0.0000416178752369
  44     0.4482603678457817
  45     0.4247783435772488
  46     0.0084538890390536
  47     0.0104896739457146
  48     0.0000015505037155
 Ene=    0.634095
 Spin=  Alpha
 Occup=    0.000000
   1    -0.0000062737894675
   2     0.0000427505317767
   3    -0.0000412586360453
   4     0.0000017780460426
   5    -0.0590197916793649
   6    -0.0004846971200836
   7    -0.0000108763739781
   8     0.5648703078098595
   9    -0.0032349992617131
  10    -0.0000028764126683
  11    -0.0000027301008007
  12    -0.0002979643132348
  13    -0.0000008741748013
  14    -0.1071883461353620
  15    -0.0000058846684903
  16     0.0000458602877713
  17    -0.0000804853841886
  18    -0.0000024514850703
  19    -0.0590191581280678
  20     0.0004815109409995
  21     0.0000087486450823
  22     0.5648595600217896
  23     0.0032651648026267
  24    -0.0000034857553841
  25     0.0000029890038173
  26    -0.0000920013097045
  27    -0.0000012311354103
  28     0.1071876130259249
  29    -0.5727666013670186
  30     0.1028006879822171
  31    -0.0592201246888248
  32     0.0014644572485829
  33    -0.0002039363045029
  34     0.5728069758211451
  35    -0.1028066178669398
  36     0.0592194497953402
  37     0.0014635172672270
  38     0.0000310872232859
  39     0.5728008118211405
  40    -0.1027907145108306
  41    -0.0592198124224487
  42     0.0014628686309675
  43     0.0001197142162099
  44    -0.5727590383796288
  45     0.1028046834635780
  46     0.0592202297265284
  47     0.0014644488390271
  48     0.0000532772360194
 Ene=    0.694697
 Spin=  Alpha
 Occup=    0.000000
   1    -0.0003547234928573
   2     0.0021803849463022
   3    -0.0087511805806335
   4     0.0008395872134827
   5    -0.0008370568840165
   6    -0.6978321084705221
   7     0.0032042745113856
   8     0.0008639943886010
   9     0.6137584604743934
  10    -0.0000180762802134
  11     0.0652679902094796
  12    -0.0000002287894393
  13     0.0000622704291926
  14    -0.0000619847254998
  15     0.0002211845057025
  16    -0.0023319184055264
  17     0.0119108540269830
  18    -0.0000315154700338
  19     0.0008743468060699
  20    -0.6978233242712422
  21     0.0027184732359522
  22    -0.0008967461245043
  23     0.6137422951402173
  24     0.0001928589043372
  25    -0.0652680590811978
  26    -0.0000004206011159
  27     0.0000140046111042
  28    -0.0000584949139207
  29    -0.0005466263027231
  30     0.0007034259340684
  31     0.0001029719655919
  32    -0.0000256585487487
  33    -0.0137745836331845
  34     0.0000223085520760
  35    -0.0010413579843855
  36     0.0000519280775752
  37    -0.0000851878082197
  38    -0.0137737231007869
  39    -0.0012942585301927
  40    -0.0001622484903779
  41    -0.0000831804366105
  42     0.0000783094106263
  43    -0.0137744549169302
  44    -0.0007253746180019
  45    -0.0019070736072051
  46    -0.0000321352048048
  47     0.0000340149322147
  48    -0.0137742217514778
 Ene=    0.738188
 Spin=  Alpha
 Occup=    0.000000
   1    -0.0191485142458884
   2     0.6431648844339084
   3    -5.2259746386082711
   4     0.1580817882213133
   5    -0.0000021007407334
   6     0.0008793535437280
   7     1.1694015381131464
   8     0.0000030960761742
   9    -0.0043994954850471
  10    -0.0646491743755015
  11     0.0000466779038890
  12    -0.0002923916602900
  13    -0.0249950153892357
  14     0.0000005450640383
  15     0.0191468317349057
  16    -0.6431502833443756
  17     5.2259471344031683
  18     0.1580819427980826
  19     0.0000007801293362
  20     0.0012269925744988
  21     1.1694064132480206
  22    -0.0000051194888811
  23    -0.0002699731301613
  24     0.0646483688594996
  25     0.0000112556762198
  26    -0.0002997130545101
  27     0.0249948919466503
  28    -0.0000000890063372
  29     0.5546207811741712
  30     0.3926532442547298
  31    -0.0111313334969218
  32     0.0312903746691202
  33    -0.0002321266511750
  34     0.5546260325180942
  35     0.3926480639689531
  36    -0.0111330897007207
  37    -0.0312891921998542
  38    -0.0000794293614454
  39    -0.5546179712009868
  40    -0.3926447408717927
  41    -0.0111321238857049
  42     0.0312897684721019
  43     0.0001709846234576
  44    -0.5546175104017752
  45    -0.3926407213032581
  46    -0.0111316962039281
  47    -0.0312905997736935
  48     0.0000149389507492
 Ene=    0.810624
 Spin=  Alpha
 Occup=    0.000000
   1     0.0007250673394592
   2    -0.0037206739628945
   3     0.0070896667914483
   4    -0.0011698880599460
   5     0.0012052672747952
   6     0.7803592009349537
   7     0.0005440987936608
   8    -0.0016184689516010
   9    -1.1104945782259092
  10    -0.0002064013880778