
 Primary working directories:    /u/s/ben/molpro
 Secondary working directories:  /u/s/ben/molpro

 CPU=Opteron 2010.336:2010.336 MHz
 mxmblk= 64  mxmbln= 64  ncache= 16384  mindgm= 15  mindgv= 24  mindgc= 16  mindgl=  5  mindgr=  1  noblas=0  nroll=2  minvec=7
 default implementation of scratch files=df  

 ***,SA-2-CAS(2/2)
                                                           ! One step of S0/S1 conical intersection search in Cartesian coordinates
 memory,50,m
 FILE,2,qwerty.wfn
 punch,all.pun
 geometry={
 nosymm,noorient,angstrom;
 C,,         0.01270752,      0.08316128,     -0.44951760
 C,,        -0.31609960,     -0.10419905,      0.95662401
 H,,         1.07575678,     -0.16119799,     -0.55815890
 H,,        -0.11651152,      1.10580391,     -0.79699203
 H,,        -0.53581374,     -0.57577321,     -1.11894023
 H,,        -0.12003944,     -0.34679494,      1.96798438
 }
 basis=6-31g**
  
 INT
 HF
 MULTI
 config,csf;
 OCC,9;
 CLOSED,7;
 WF,16,1,0;
 STATE,2;
 WEIGHT,1,1;
 MAXITER,100;
 CPMCSCF,GRAD,  2.1,record=5100.1
 CPMCSCF,GRAD,  1.1,record=5101.1
 FORCES
 SAMC,5100.1
 FORCES
 SAMC,5101.1
 ---

 Variables initialized (516), CPU time= 0.01 sec
 Commands  initialized (293), CPU time= 0.02 sec, 434 directives.
 Default parameters read. Elapsed time= 0.06 sec
 Checking input...
 Passed
1


                                         ***  PROGRAM SYSTEM MOLPRO  ***
                         Copyright, University College Cardiff Consultants Limited, 2004

                                    Version 2006.1 linked 11 Jul 2006 00:19:12


 **********************************************************************************************************************************
 LABEL *   SA-2-CAS(2/2)                                                                 
 Linux-2.6.9-42.0.2.ELsmp/compute-3-3.local(x86_64) 64 bit version (pgf6.0-5/acml)       DATE:   5-Jul-07         TIME: 11:34:30  
 **********************************************************************************************************************************

 Patch level:      1

 Modules:           develop
 **********************************************************************************************************************************

 Variable memory set to   50000000 words,  buffer space   230000 words



 Permanent file  2  qwerty.wfn       assigned.  Implementation=df    Size=  1.29 MB


 PROGRAM * RESTART 


 Reading variables from file 2

 FOCKDONE        =      1.00000000
 SCFDONE         =      1.00000000
 DIRECT          =      0.00000000
 BASIS           =    6-31G**
 NELEC           =     16.00000000
 SPIN            =      0.00000000
 PROGRAM         =    FORCES
 CPUSTEP         =      1.01000000
 SYSSTEP         =      0.00000000
 WALLSTEP        =      1.01000000
 BASINP          =    610.00000000
 CPUTOT          =      3.26000000
 DMX(1:2)        =      0.29770807     0.23519600
 DMY(1:2)        =     -0.05119892    -0.03868978
 DMZ(1:2)        =     -0.12047636    -0.10415635
 ENERGY(1:2)     =    -77.89193339   -77.89165169
 ENUC            =     32.05211461
 EPS1(1:9)       =    -11.28168569   -11.21447599    -1.05463362    -0.79663744    -0.62208983    -0.57645475
                       -0.50324347    -0.22192297     0.01456337
 GRADENERG       =    -77.89193339
 GRADEXFAC       =   9999.00000000
 GRADMETHOD      =      5.00000000
 ITERATIONS      =      2.00000000
 LASTNELEC       =      2.00000000
 LASTSPIN        =      0.00000000
 LASTSYM         =      1.00000000
 ORBITAL         =   2141.20000000
 SEIG_MIN        =      0.00740515
 STATUS          =      1.00000000
 SYSTOT          =      0.27000000
 WALLTOT         =      3.57000000
 MODULE_DEVELOP  =    true
 MODULE_DOC      =    true
 LASTORB         =    MCSCF
 PGROUP          =    C1  
 TRDMX           =      0.01287215
 TRDMY           =      0.05156029
 TRDMZ           =      0.00987292
 CX1             =      0.04535342
 CY1             =      0.15117808
 CZ1             =     -0.85037669
 CX2             =     -0.57825615
 CY2             =     -0.20220068
 CZ2             =      1.81035750
 HX3             =      2.04657325
 HY3             =     -0.29857671
 HZ3             =     -1.10171025
 HX4             =     -0.22676712
 HY4             =      2.09003694
 HZ4             =     -1.49099380
 HX5             =     -1.02045203
 HY5             =     -1.09037190
 HZ5             =     -2.10137530
 HX6             =     -0.26645136
 HY6             =     -0.64817601
 HZ6             =      3.73598828
 CX1A            =      0.02203381
 CY1A            =      0.15767375
 CZ1A            =     -0.84959962
 CX2A            =     -0.59649458
 CY2A            =     -0.19710367
 CZ2A            =      1.80768074
 HX3A            =      2.03342141
 HY3A            =     -0.30484372
 HZ3A            =     -1.05430967
 HX4A            =     -0.21986232
 HY4A            =      2.08941386
 HZ4A            =     -1.50605785
 HX5A            =     -1.01214926
 HY5A            =     -1.08800212
 HZ5A            =     -2.11438841
 HX6A            =     -0.22694906
 HY6A            =     -0.65524837
 HZ6A            =      3.71856385


 **********************************************************************************************************************************
 DATASETS  * FILE   NREC   LENGTH (MB)   RECORD NAMES
              2      12        1.36       500      600      700     1000     2100     2140      701      610      701(1)  1001   
                                          VAR    BASINP    GEOM     BASIS     RHF     MCSCF    GEOM    BASINP    GEOM     BASIS   
                                         2100(1)  2141   
                                          RHF     MCSCF   

 PROGRAMS   *        TOTAL   RESTART
 CPU TIMES  *         0.31      0.01
 REAL TIME  *         0.33 SEC
 DISK USED  *         0.03 MB      
 **********************************************************************************************************************************

 PUNCHFILE ALL.PUN OPENED
 SETTING BASIS          =    6-31G**


 Using spherical harmonics

 Library entry C      S 6-31G                selected for orbital group  1
 Library entry C      P 6-31G                selected for orbital group  1
 Library entry C      D 6-31G*               selected for orbital group  1
 Library entry H      S 6-31G                selected for orbital group  2
 Library entry H      P 6-31G**              selected for orbital group  2

1PROGRAM * SEWARD (Integral evaluation for generally contracted gaussian basis sets)     Author: Roland Lindh, 1990

 Geometry written to block  1 of record 701


 Point group  C1  



 ATOMIC COORDINATES

 NR  ATOM    CHARGE       X              Y              Z

   1  C       6.00    0.024013731    0.157152032   -0.849465091
   2  C       6.00   -0.597341629   -0.196907653    1.807757253
   3  H       1.00    2.032885545   -0.304620031   -1.054767379
   4  H       1.00   -0.220174847    2.089666387   -1.506096552
   5  H       1.00   -1.012541150   -1.088053598   -2.114490432
   6  H       1.00   -0.226841649   -0.655347411    3.718951228

 Bond lengths in Bohr (Angstrom)

 1-2  2.751776032  1-3  2.071460459  1-4  2.055578913  1-5  2.055546690  2-6  2.000024914
     (1.456177270)     (1.096169747)     (1.087765594)     (1.087748543)     (1.058367682)

 Bond angles

  1-2-6  155.56254953   2-1-3  106.61869965   2-1-4  113.74092128   2-1-5  113.73240008

  3-1-4  107.04479640   3-1-5  107.03768799   4-1-5  108.24121037

 NUCLEAR CHARGE:                   16
 NUMBER OF PRIMITIVE AOS:          84
 NUMBER OF SYMMETRY AOS:           82
 NUMBER OF CONTRACTIONS:           48   (  48A   )
 NUMBER OF CORE ORBITALS:           2   (   2A   )
 NUMBER OF VALENCE ORBITALS:       12   (  12A   )


 NUCLEAR REPULSION ENERGY   32.04904817


 Eigenvalues of metric

         1 0.742E-02 0.306E-01 0.329E-01 0.496E-01 0.577E-01 0.151E+00 0.171E+00 0.175E+00


 Contracted 2-electron integrals neglected if value below      1.0D-11
 AO integral compression algorithm  1   Integral accuracy      1.0D-11

     3.670 MB (compressed) written to integral file ( 57.3%)


 NUMBER OF SORTED TWO-ELECTRON INTEGRALS:     692076.     BUFFER LENGTH:  32768
 NUMBER OF SEGMENTS:   1  SEGMENT LENGTH:     692076      RECORD LENGTH: 524288

 Memory used in sort:       1.25 MW

 SORT1 READ     831608. AND WROTE     675897. INTEGRALS IN    2 RECORDS. CPU TIME:     0.04 SEC, REAL TIME:     0.08 SEC
 SORT2 READ     675897. AND WROTE     692076. INTEGRALS IN   14 RECORDS. CPU TIME:     0.07 SEC, REAL TIME:     0.11 SEC

 FILE SIZES:   FILE 1:    5.6 MBYTE,  FILE 4:    8.4 MBYTE,   TOTAL:   14.0 MBYTE

 OPERATOR DM      FOR CENTER  0  COORDINATES:    0.000000    0.000000    0.000000


 **********************************************************************************************************************************
 DATASETS  * FILE   NREC   LENGTH (MB)   RECORD NAMES
              1      19        4.87       500      610      701      900      950      970     1001     1100     1400     1410   
                                          VAR    BASINP    GEOM    SYMINP    ZMAT    AOBASIS   BASIS      S        T        V 
                                         1200     1210     1080     1600      129      960     1650     1300     1700   
                                          H0       H01     AOSYM     SMH      P2S    ABASIS   MOLCAS    ERIS     OPER   

              2      12        1.36       500      600      700     1000     2100     2140      701      610      701(1)  1001   
                                          VAR    BASINP    GEOM     BASIS     RHF     MCSCF    GEOM    BASINP    GEOM     BASIS   
                                         2100(1)  2141   
                                          RHF     MCSCF   

 PROGRAMS   *        TOTAL       INT   RESTART
 CPU TIMES  *         0.78      0.44      0.01
 REAL TIME  *         1.53 SEC
 DISK USED  *        15.60 MB      
 **********************************************************************************************************************************

1PROGRAM * RHF-SCF (CLOSED SHELL)       Authors: W. Meyer, H.-J. Werner


 NUMBER OF ELECTRONS:       8+    8-    SPACE SYMMETRY=1    SPIN SYMMETRY=Singlet 
 CONVERGENCE THRESHOLDS:    1.00E-06 (Density)    1.00E-07 (Energy)
 MAX. NUMBER OF ITERATIONS:       60
 INTERPOLATION TYPE:            DIIS
 INTERPOLATION STEPS:              2 (START)      1 (STEP)
 LEVEL SHIFTS:                  0.00 (CLOSED)  0.00 (OPEN) 



 Molecular orbitals read from record     2100.2  Type=RHF/CANONICAL (state 1.1)

 Molecular orbital dump at record        2100.2

 ITERATION    DDIFF          GRAD             ENERGY        2-EL.EN.            DIPOLE MOMENTS         DIIS
    1      0.000D+00      0.000D+00       -77.85672991    114.784771   0.135866  -0.020843  -0.067922    0
    2      0.000D+00      0.411D-04       -77.85673075    114.783926   0.135731  -0.020897  -0.067466    1
    3      0.322D-04      0.123D-04       -77.85673086    114.784239   0.136247  -0.021042  -0.067376    2
    4      0.134D-04      0.325D-05       -77.85673087    114.784153   0.136265  -0.021064  -0.067284    3
    5      0.405D-05      0.117D-05       -77.85673087    114.784153   0.136297  -0.021073  -0.067276    4
    6      0.162D-05      0.362D-06       -77.85673087    114.784174   0.136299  -0.021075  -0.067269    5
    7      0.467D-06      0.130D-06       -77.85673087    114.784162   0.136297  -0.021074  -0.067269    0

 Final occupancy:   8

 !RHF STATE 1.1 ENERGY                -77.856730869229
 Nuclear energy                        32.04904817
 One-electron energy                 -167.29786022
 Two-electron energy                   57.39208118
 Virial quotient                       -0.99948783
 !RHF STATE 1.1 DIPOLE MOMENT           0.13629706    -0.02107370    -0.06726892
 Dipole moment /Debye                   0.34640989    -0.05356050    -0.17096935


 **********************************************************************************************************************************
 DATASETS  * FILE   NREC   LENGTH (MB)   RECORD NAMES
              1      19        4.87       500      610      701      900      950      970     1001     1100     1400     1410   
                                          VAR    BASINP    GEOM    SYMINP    ZMAT    AOBASIS   BASIS      S        T        V 
                                         1200     1210     1080     1600      129      960     1650     1300     1700   
                                          H0       H01     AOSYM     SMH      P2S    ABASIS   MOLCAS    ERIS     OPER   

              2      12        1.36       500      600      700     1000     2100     2140      701      610      701(1)  1001   
                                          VAR    BASINP    GEOM     BASIS     RHF     MCSCF    GEOM    BASINP    GEOM     BASIS   
                                         2100(1)  2141   
                                          RHF     MCSCF   

 PROGRAMS   *        TOTAL        HF       INT   RESTART
 CPU TIMES  *         0.96      0.16      0.44      0.01
 REAL TIME  *         1.72 SEC
 DISK USED  *        15.60 MB      
 **********************************************************************************************************************************

1PROGRAM * MULTI (Direct Multiconfiguration SCF)       Authors: P.J. Knowles, H.-J. Werner (1984)     S.T. Elbert (1988)


 Number of closed-shell orbitals:  7 (  7 )
 Number of active  orbitals:       2 (  2 )
 Number of external orbitals:     39 ( 39 )

 State symmetry 1

 Number of electrons:     2    Spin symmetry=Singlet   Space symmetry=1
 Number of states:        2
 Number of CSFs:          3

 Iteration controls:
             1  2  3  4  5  6  7  8  9 10 11 12 13 14 15 16 17 18 19 20 21 22 23 24 25 26 27 28 29 30 31 32 33 34 35 36 37 38 39
 DIAGCI      T  T  T  T  T  T  T  T  T  T  T  T  T  T  T  T  T  T  T  T  T  T  T  T  T  T  T  T  T  T  T  T  T  T  T  T  T  T  T
 WERNER      T  T  T  T  T  T  T  T  T  T  T  T  T  T  T  T  T  T  T  T  T  T  T  T  T  T  T  T  T  T  T  T  T  T  T  T  T  T  T
 INTERNAL    F  T  T  T  T  T  T  T  T  T  T  T  T  T  T  T  T  T  T  T  T  T  T  T  T  T  T  T  T  T  T  T  T  T  T  T  T  T  T

 Maximum number of shells:             2
 Maximum number of spin couplings:     1

 Storage for configuration lists       6, coupling coefficients      5, address lists     28

 Molecular orbitals read from record     2141.2  Type=MCSCF/NATURAL (state averaged)

 Wavefunction dump at record             2141.2

 Convergence thresholds  0.10E-05 (gradient)  0.10E-07 (energy)  0.10E-02 (step length)

 Weight factors for state symmetry  1:    0.50000   0.50000

 Eigenvalues of redundancy matrix
   1-  1    0.000000

 Number of orbital rotations:     365     (  14 Core/Active  273 Core/Virtual   0 Active/Active   78 Active/Virtual)
 Total number of variables:       371


 ITER. MIC  NCI  NEG     ENERGY(VAR)     ENERGY(PROJ)   ENERGY CHANGE     GRAD(0)  GRAD(ORB)   GRAD(CI)     STEP       TIME

   1   19    7    0     -77.89188859     -77.89188971   -0.00000112    0.00147288 0.00000000 0.00000000  0.90D-03      0.17
   2   17    4    0     -77.89188971     -77.89188971    0.00000000    0.00000037 0.00000000 0.00000000  0.18D-06      0.29

 ** WVFN ****  CONVERGENCE REACHED, FINAL GRADIENT:  0.31D-07

 Solving MCSCF z-vector equations for state  2.1, requested accuracy=      0.10D-06
 Convergence reached in  11 iterations ( 11 expansion vectors), accuracy=  0.66D-07

 SA-Gradient information saved on record      5100.1

 Solving MCSCF z-vector equations for state  1.1, requested accuracy=      0.10D-06
 Convergence reached in  11 iterations ( 11 expansion vectors), accuracy=  0.66D-07

 SA-Gradient information saved on record      5101.1



 Results for state 1.1
 =====================

 !MCSCF STATE 1.1 ENERGY              -77.892060983071
 Nuclear energy                        32.04904817
 Kinetic energy                        77.95546572
 One electron energy                 -167.31674751
 Two electron energy                   57.37563836
 Virial ratio                           1.99918665

 !MCSCF STATE 1.1 DIPOLE MOMENT         0.29995432    -0.05164967    -0.12099948
 Dipole moment /Debye                   0.76235791    -0.13127176    -0.30752986

 Results for state 2.1
 =====================

 !MCSCF STATE 2.1 ENERGY              -77.891718442465
 Nuclear energy                        32.04904817
 Kinetic energy                        77.94982813
 One electron energy                 -167.32439625
 Two electron energy                   57.38362964
 Virial ratio                           1.99925452

 !MCSCF STATE 2.1 DIPOLE MOMENT         0.23573687    -0.03883265    -0.10414880
 Dipole moment /Debye                   0.59914410    -0.09869628    -0.26470251

 State-averaged charge density matrix saved on record  2141.2 (density set 1)

 !MCSCF expec         <1.1|DMX|1.1>     0.299954322255 au =     0.762357906356 Debye
 !MCSCF trans         <2.1|DMX|1.1>     0.013175435903 au =     0.033486424383 Debye
 !MCSCF expec         <2.1|DMX|2.1>     0.235736865906 au =     0.599144103649 Debye

 !MCSCF expec         <1.1|DMY|1.1>    -0.051649666154 au =    -0.131271758503 Debye
 !MCSCF trans         <2.1|DMY|1.1>     0.052794557109 au =     0.134181590457 Debye
 !MCSCF expec         <2.1|DMY|2.1>    -0.038832647912 au =    -0.098696281280 Debye

 !MCSCF expec         <1.1|DMZ|1.1>    -0.120999479054 au =    -0.307529855975 Debye
 !MCSCF trans         <2.1|DMZ|1.1>     0.010110217387 au =     0.025695926307 Debye
 !MCSCF expec         <2.1|DMZ|2.1>    -0.104148802405 au =    -0.264702513217 Debye


 Natural orbital dump (state averaged) at molpro section   2141.2    (Orbital set 2)



 **********************************************************************************************************************************
 DATASETS  * FILE   NREC   LENGTH (MB)   RECORD NAMES
              1      22        6.18       500      610      701      900      950      970     1001     1100     1400     1410   
                                          VAR    BASINP    GEOM    SYMINP    ZMAT    AOBASIS   BASIS      S        T        V 
                                         1200     1210     1080     1600      129      960     1650     1300     1700     1380   
                                          H0       H01     AOSYM     SMH      P2S    ABASIS   MOLCAS    ERIS     OPER     JKOP   
                                         5100     5101   
                                        CPSAMC   CPSAMC    

              2      12        1.36       500      600      700     1000     2100     2140      701      610      701(1)  1001   
                                          VAR    BASINP    GEOM     BASIS     RHF     MCSCF    GEOM    BASINP    GEOM     BASIS   
                                         2100(1)  2141   
                                          RHF     MCSCF   

 PROGRAMS   *        TOTAL     MULTI        HF       INT   RESTART
 CPU TIMES  *         1.47      0.49      0.16      0.44      0.01
 REAL TIME  *         2.36 SEC
 DISK USED  *        15.60 MB      
 **********************************************************************************************************************************


 *** Long output written to logfile /u/s/ben/103010/tmp.log ***

1PROGRAM * FORCE (Gradient of the energy)

 SA-MCSCF information from    5100.1
 Orbitals from record         2141.2

 Number of closed-shell orbitals:  7 (  7 )
 Number of active orbitals:        2 (  2 )
 Number of occupied orbitals:      9 (  9 )

 Number of electrons=16     Singlet     Space symmetry=1      Wavefunction type: SA-MCSCF


 End of calculation of the energy gradient  ,IREST=   0


 SA-MC GRADIENT FOR STATE 2.1

 Atom          dE/dx               dE/dy               dE/dz

   1        -0.019087173         0.004933289        -0.000855840
   2         0.019686318        -0.004465685        -0.002340106
   3         0.001218952        -0.001595722         0.006699556
   4         0.002410067        -0.000286197        -0.001628970
   5         0.002419480        -0.000291032        -0.001613352
   6        -0.006647643         0.001705348        -0.000261288



 **********************************************************************************************************************************
 DATASETS  * FILE   NREC   LENGTH (MB)   RECORD NAMES
              1      23        6.20       500      610      701      900      950      970     1001     1100     1400     1410   
                                          VAR    BASINP    GEOM    SYMINP    ZMAT    AOBASIS   BASIS      S        T        V 
                                         1200     1210     1080     1600      129      960     1650     1300     1700     1380   
                                          H0       H01     AOSYM     SMH      P2S    ABASIS   MOLCAS    ERIS     OPER     JKOP   
                                         5100     5101      702   
                                        CPSAMC   CPSAMC    GEOM   

              2      13        1.37       500      600      700     1000     2100     2140      701      610      701(1)  1001   
                                          VAR    BASINP    GEOM     BASIS     RHF     MCSCF    GEOM    BASINP    GEOM     BASIS   
                                         2100(1)  2141      702   
                                          RHF     MCSCF    GEOM   

 PROGRAMS   *        TOTAL    FORCES     MULTI        HF       INT   RESTART
 CPU TIMES  *         2.58      1.10      0.49      0.16      0.44      0.01
 REAL TIME  *         3.56 SEC
 DISK USED  *        15.60 MB      
 **********************************************************************************************************************************

1PROGRAM * FORCE (Gradient of the energy)

 SA-MCSCF information from    5101.1
 Orbitals from record         2141.2

 Number of closed-shell orbitals:  7 (  7 )
 Number of active orbitals:        2 (  2 )
 Number of occupied orbitals:      9 (  9 )

 Number of electrons=16     Singlet     Space symmetry=1      Wavefunction type: SA-MCSCF


 End of calculation of the energy gradient  ,IREST=   0


 SA-MC GRADIENT FOR STATE 1.1

 Atom          dE/dx               dE/dy               dE/dz

   1        -0.036383161         0.009411167        -0.001708643
   2         0.041942198        -0.009554355        -0.004778916
   3         0.001142200        -0.002841677         0.013301875
   4         0.004277624         0.000145472        -0.003833581
   5         0.004070450        -0.000722689        -0.003984571
   6        -0.015049311         0.003562082         0.001003836



 **********************************************************************************************************************************
 DATASETS  * FILE   NREC   LENGTH (MB)   RECORD NAMES
              1      23        6.20       500      610      701      900      950      970     1001     1100     1400     1410   
                                          VAR    BASINP    GEOM    SYMINP    ZMAT    AOBASIS   BASIS      S        T        V 
                                         1200     1210     1080     1600      129      960     1650     1300     1700     1380   
                                          H0       H01     AOSYM     SMH      P2S    ABASIS   MOLCAS    ERIS     OPER     JKOP   
                                         5100     5101      702   
                                        CPSAMC   CPSAMC    GEOM   

              2      13        1.37       500      600      700     1000     2100     2140      701      610      701(1)  1001   
                                          VAR    BASINP    GEOM     BASIS     RHF     MCSCF    GEOM    BASINP    GEOM     BASIS   
                                         2100(1)  2141      702   
                                          RHF     MCSCF    GEOM   

 PROGRAMS   *        TOTAL    FORCES    FORCES     MULTI        HF       INT   RESTART
 CPU TIMES  *         3.69      1.10      1.10      0.49      0.16      0.44      0.01
 REAL TIME  *         4.68 SEC
 DISK USED  *        15.60 MB      
 **********************************************************************************************************************************

        MULTI           HF-SCF  
    -77.89171844    -77.85673087
 **********************************************************************************************************************************
 Variable memory released
