
 Primary working directories:    /u/s/ben/molpro
 Secondary working directories:  /u/s/ben/molpro

 CPU=Opteron 2211.338:2211.338 MHz
 mxmblk= 64  mxmbln= 64  ncache= 16384  mindgm= 15  mindgv= 24  mindgc= 16  mindgl=  5  mindgr=  1  noblas=0  nroll=2  minvec=7
 default implementation of scratch files=df  

 ***,SA-2-CAS(2/2)
                                                           ! One step of S0/S1 conical intersection search in Cartesian coordinates
 memory,50,m
 FILE,2,uio.wfn
 punch,all.pun
 geometry={
 nosymm,noorient,angstrom;
 C,,        -0.00151839,      0.06643047,     -0.42582970
 C,,        -0.44141403,      0.15996170,      0.94674777
 C,,        -0.20459871,     -0.21946011,      2.32020699
 H,,         0.90729111,     -0.55611433,     -0.42789595
 H,,         0.27335644,      1.02284127,     -0.88884198
 H,,        -0.71550447,     -0.42192727,     -1.10162612
 H,,        -1.01411128,     -0.80550678,      2.77375182
 H,,         0.69174033,     -0.86040700,      2.32572333
 H,,         0.00475885,      0.61518185,      3.00175845
 }
 basis=6-31g**
  
 INT
  
 HF
  
 MULTI
 config,csf;
 OCC,13;
 CLOSED,11;
 WF,24,1,0;
 STATE,2;
 WEIGHT,1,1;
 MAXITER,100;
  
 RS2,shift=.3,mix=2,root=  2
 OCC,13;
 CLOSED,11;
 WF,24,1,0;
 STATE,2;
  
 forces
  
 RS2,shift=.3,mix=2,root=  1
 OCC,13;
 CLOSED,11;
 WF,24,1,0;
 STATE,2;
  
 forces
 ---

 Variables initialized (516), CPU time= 0.01 sec
 Commands  initialized (293), CPU time= 0.02 sec, 434 directives.
 Default parameters read. Elapsed time= 0.06 sec
 Checking input...
 Passed
1


                                         ***  PROGRAM SYSTEM MOLPRO  ***
                         Copyright, University College Cardiff Consultants Limited, 2004

                                    Version 2006.1 linked 11 Jul 2006 00:19:12


 **********************************************************************************************************************************
 LABEL *   SA-2-CAS(2/2)                                                                 
 Linux-2.6.9-42.0.2.ELsmp/compute-3-11.local(x86_64) 64 bit version (pgf6.0-5/acml)      DATE:   5-Jul-07         TIME: 12:54:39  
 **********************************************************************************************************************************

 Patch level:      1

 Modules:           develop
 **********************************************************************************************************************************

 Variable memory set to   50000000 words,  buffer space   230000 words



 Permanent file  2  uio.wfn  assigned.  Implementation=df    Size=  1.77 MB


 PROGRAM * RESTART 


 Reading variables from file 2

 FOCKDONE        =      0.00000000
 SCFDONE         =      1.00000000
 DIRECT          =      0.00000000
 BASIS           =    6-31G**
 NELEC           =     24.00000000
 SPIN            =      0.00000000
 PROGRAM         =    FORCES
 CPUSTEP         =      5.48000000
 SYSSTEP         =      0.04000000
 WALLSTEP        =      5.54000000
 BASINP          =    610.00000000
 CPUTOT          =     41.98000000
 DMX             =      0.25390037
 DMY             =     -0.19688292
 DMZ             =     -0.00166377
 EMP2(1:2)       =   -117.33715393  -117.33617871
 ENERGR(1:2)     =   -116.93918680  -116.93683941
 ENERGU(1:2)     =   -117.44803003  -116.93725712
 ENERGY(1:2)     =   -117.33715393  -117.33617871
 ENUC            =     68.45519999
 GRADENERG       =   -117.33617871
 GRADEXFAC       =   9999.00000000
 GRADMETHOD      =      9.00000000
 GRADRECORD      =   5201.10000000
 LASTNELEC       =      2.00000000
 LASTSPIN        =      0.00000000
 LASTSYM         =      1.00000000
 MSENERGY(1:2)   =   -117.33715393  -117.33617871
 ORBITAL         =   2140.20000000
 ROOT(1:2)       =      1.00000000     2.00000000
 SEIG_MIN        =      0.00502325
 STATUS          =      1.00000000
 SYSTOT          =      4.99000000
 TROV(1:142)     =      0.04908089    -0.04928153    -0.00505600     0.00504234     0.05334222    -0.05365802
                        0.05151678    -0.05226242     0.02632596    -0.02724049     0.03497648    -0.03578920
                        0.03091856    -0.03175127     0.02815134    -0.02895646     0.02641912    -0.02716026
                        0.02188472    -0.02259014     0.02023730    -0.02087804     0.01999719    -0.02063995
                        0.01848174    -0.01911889     0.01921381    -0.01987312     0.01772537    -0.01838032
                        0.01683140    -0.01749222     0.01612878    -0.01678333     0.01451297    -0.01513163
                        0.01561617    -0.01624702     0.01552360    -0.01614867     0.01535946    -0.01597309
                        0.01399125    -0.01457668     0.01405551    -0.01463032     0.01311022    -0.01364469
                        0.01198901    -0.01247663     0.00905598    -0.00944768     0.00860970    -0.00897127
                        0.00854838    -0.00890678     0.00778747    -0.00811708     0.00686862    -0.00715323
                        0.00424739    -0.00443105     0.00391074    -0.00407938     0.00167835    -0.00175097
                       -0.00206866     0.00215825    -0.00876070     0.00915311    -0.00528236     0.00551630
                       -0.00466973     0.00487970    -0.00523026     0.00546624    -0.00447264     0.00467484
                       -0.00648954     0.00678149    -0.00658873     0.00688954    -0.00830560     0.00868983
                       -0.00929373     0.00977290    -0.01052026     0.01106107    -0.00222124     0.00233951
                       -0.00897260     0.00944149     0.01596326    -0.01675185    -0.00205102     0.00215655
                        0.01441443    -0.01514200     0.00407814    -0.00428707     0.00634449    -0.00666834
                        0.00704366    -0.00743747     0.00674425    -0.00710460     0.00660265    -0.00695134
                        0.00560885    -0.00590544     0.00272823    -0.00287034     0.00247788    -0.00261031
                        0.00119789    -0.00126101     0.00006206    -0.00006531    -0.00142538     0.00149966
                       -0.00294932     0.00311061    -0.00227527     0.00239583    -0.00159437     0.00167919
                       -0.00159432     0.00167914    -0.00014314     0.00014234    -0.00571679     0.00594971
                       -0.00269991     0.00280468    -0.00021961     0.00022802     0.00070840    -0.00073520
                        0.00190138    -0.00197369    -0.00402910     0.00418208
 WALLTOT         =     47.35000000
 MODULE_DEVELOP  =    true
 LASTORB         =    MCSCF
 PGROUP          =    C1  
 CX1             =      0.04535342
 CY1             =      0.15117808
 CZ1             =     -0.85037669
 CX2             =     -0.57825615
 CY2             =     -0.20220068
 CZ2             =      1.81035750
 CX3             =     -0.26645136
 CY3             =     -0.64817601
 CZ3             =      4.34636977
 HX4             =      2.04657325
 HY4             =     -0.29857671
 HZ4             =     -1.10171025
 HX5             =     -0.22676712
 HY5             =      2.09003694
 HZ5             =     -1.49099380
 HX6             =     -1.02045203
 HY6             =     -1.09037190
 HZ6             =     -2.10137530
 HX7             =     -1.70075339
 HY7             =     -0.75589040
 HZ7             =      5.10226017
 HX8             =      0.37794520
 HY8             =     -1.88972599
 HZ8             =      5.10226017
 HX9             =      0.37794520
 HY9             =      0.75589040
 HZ9             =      5.29123277
 CX1A            =     -0.00274983
 CY1A            =      0.12495214
 CZ1A            =     -0.80502242
 CX2A            =     -0.83367199
 CY2A            =      0.30247428
 CZ2A            =      1.78911448
 CX3A            =     -0.38661543
 CY3A            =     -0.41525200
 CZ3A            =      4.38473981
 HX4A            =      1.71438425
 HY4A            =     -1.05076566
 HZ4A            =     -0.80853977
 HX5A            =      0.51655777
 HY5A            =      1.93320794
 HZ5A            =     -1.67961013
 HX6A            =     -1.35223998
 HY6A            =     -0.79726168
 HZ6A            =     -2.08194499
 HX7A            =     -1.91633526
 HY7A            =     -1.52232295
 HZ7A            =      5.24184011
 HX8A            =      1.30686231
 HY8A            =     -1.62580208
 HZ8A            =      4.39491742
 HX9A            =      0.00894489
 HY9A            =      1.16293333
 HZ9A            =      5.67251962


 **********************************************************************************************************************************
 DATASETS  * FILE   NREC   LENGTH (MB)   RECORD NAMES
              2       7        1.86       500      610      700     1000     2100     2140      701   
                                          VAR    BASINP    GEOM     BASIS     RHF     MCSCF    GEOM   

 PROGRAMS   *        TOTAL   RESTART
 CPU TIMES  *         0.34      0.01
 REAL TIME  *         0.36 SEC
 DISK USED  *         0.03 MB      
 **********************************************************************************************************************************

 PUNCHFILE ALL.PUN OPENED
 SETTING BASIS          =    6-31G**


 Using spherical harmonics

 Library entry C      S 6-31G                selected for orbital group  1
 Library entry C      P 6-31G                selected for orbital group  1
 Library entry C      D 6-31G*               selected for orbital group  1
 Library entry H      S 6-31G                selected for orbital group  2
 Library entry H      P 6-31G**              selected for orbital group  2

1PROGRAM * SEWARD (Integral evaluation for generally contracted gaussian basis sets)     Author: Roland Lindh, 1990

 Geometry written to block  1 of record 701


 Point group  C1  



 ATOMIC COORDINATES

 NR  ATOM    CHARGE       X              Y              Z

   1  C       6.00   -0.002869341    0.125535386   -0.804701451
   2  C       6.00   -0.834151564    0.302283782    1.789093866
   3  C       6.00   -0.386635500   -0.414719473    4.384555448
   4  H       1.00    1.714531590   -1.050903702   -0.808606097
   5  H       1.00    0.516568769    1.932889730   -1.679667789
   6  H       1.00   -1.352107392   -0.797326927   -2.081771509
   7  H       1.00   -1.916392441   -1.522187096    5.241630900
   8  H       1.00    1.307199679   -1.625933469    4.394979819
   9  H       1.00    0.008992923    1.162525130    5.672500954

 Bond lengths in Bohr (Angstrom)

 1-2  2.729476923  1-4  2.081703661  1-5  2.074105053  1-6  2.074373664  2-3  2.729612632
     (1.444377089)     (1.101590216)     (1.097569206)     (1.097711349)     (1.444448903)

 3-7  2.073938082  3-8  2.082360589  3-9  2.074373644
     (1.097480849)     (1.101937848)     (1.097711338)

 Bond angles

  1-2-3  146.78755354   2-1-4  106.83622480   2-1-5  114.88057687   2-1-6  114.56674950

  2-3-7  114.34855029   2-3-8  106.91218568   2-3-9  114.95544960   4-1-5  106.56169810

  4-1-6  106.50084334   5-1-6  106.90910837   7-3-8  106.69752406   7-3-9  106.86464496

  8-3-9  106.49992280

 NUCLEAR CHARGE:                   24
 NUMBER OF PRIMITIVE AOS:         126
 NUMBER OF SYMMETRY AOS:          123
 NUMBER OF CONTRACTIONS:           72   (  72A   )
 NUMBER OF CORE ORBITALS:           3   (   3A   )
 NUMBER OF VALENCE ORBITALS:       18   (  18A   )


 NUCLEAR REPULSION ENERGY   68.45779159


 Eigenvalues of metric

         1 0.502E-02 0.697E-02 0.293E-01 0.327E-01 0.429E-01 0.519E-01 0.538E-01 0.571E-01


 Contracted 2-electron integrals neglected if value below      1.0D-11
 AO integral compression algorithm  1   Integral accuracy      1.0D-11

     14.418 MB (compressed) written to integral file ( 47.7%)


 NUMBER OF SORTED TWO-ELECTRON INTEGRALS:    3454506.     BUFFER LENGTH:  32768
 NUMBER OF SEGMENTS:   1  SEGMENT LENGTH:    3454506      RECORD LENGTH: 524288

 Memory used in sort:       4.01 MW

 SORT1 READ    3738183. AND WROTE    3023365. INTEGRALS IN    9 RECORDS. CPU TIME:     0.16 SEC, REAL TIME:     0.30 SEC
 SORT2 READ    3023365. AND WROTE    3454506. INTEGRALS IN   55 RECORDS. CPU TIME:     0.23 SEC, REAL TIME:     0.33 SEC

 FILE SIZES:   FILE 1:   16.5 MBYTE,  FILE 4:   37.8 MBYTE,   TOTAL:   54.2 MBYTE

 OPERATOR DM      FOR CENTER  0  COORDINATES:    0.000000    0.000000    0.000000


 **********************************************************************************************************************************
 DATASETS  * FILE   NREC   LENGTH (MB)   RECORD NAMES
              1      19       14.10       500      610      701      900      950      970     1000     1100     1400     1410   
                                          VAR    BASINP    GEOM    SYMINP    ZMAT    AOBASIS   BASIS      S        T        V 
                                         1200     1210     1080     1600      129      960     1650     1300     1700   
                                          H0       H01     AOSYM     SMH      P2S    ABASIS   MOLCAS    ERIS     OPER   

              2       7        1.86       500      610      700     1000     2100     2140      701   
                                          VAR    BASINP    GEOM     BASIS     RHF     MCSCF    GEOM   

 PROGRAMS   *        TOTAL       INT   RESTART
 CPU TIMES  *         1.93      1.54      0.01
 REAL TIME  *         2.31 SEC
 DISK USED  *        56.39 MB      
 **********************************************************************************************************************************

1PROGRAM * RHF-SCF (CLOSED SHELL)       Authors: W. Meyer, H.-J. Werner


 NUMBER OF ELECTRONS:      12+   12-    SPACE SYMMETRY=1    SPIN SYMMETRY=Singlet 
 CONVERGENCE THRESHOLDS:    1.00E-06 (Density)    1.00E-07 (Energy)
 MAX. NUMBER OF ITERATIONS:       60
 INTERPOLATION TYPE:            DIIS
 INTERPOLATION STEPS:              2 (START)      1 (STEP)
 LEVEL SHIFTS:                  0.00 (CLOSED)  0.00 (OPEN) 



 Molecular orbitals read from record     2100.2  Type=RHF/CANONICAL (state 1.1)

 Molecular orbital dump at record        2100.2

 ITERATION    DDIFF          GRAD             ENERGY        2-EL.EN.            DIPOLE MOMENTS         DIIS
    1      0.000D+00      0.000D+00      -116.92655528    212.803929   0.311405  -0.221833  -0.000298    0
    2      0.000D+00      0.124D-04      -116.92655544    212.803760   0.311199  -0.221492  -0.000269    1
    3      0.113D-04      0.351D-05      -116.92655547    212.803622   0.311110  -0.221080  -0.000230    2
    4      0.577D-05      0.112D-05      -116.92655547    212.803621   0.311108  -0.220999  -0.000221    3
    5      0.260D-05      0.823D-06      -116.92655548    212.803608   0.311128  -0.220934  -0.000212    4
    6      0.235D-05      0.765D-06      -116.92655549    212.803612   0.311186  -0.220839  -0.000198    5
    7      0.479D-05      0.692D-06      -116.92655552    212.803607   0.311451  -0.220464  -0.000140    6
    8      0.208D-04      0.383D-06      -116.92655553    212.803617   0.311740  -0.220060  -0.000078    7
    9      0.222D-04      0.612D-07      -116.92655553    212.803614   0.311773  -0.220014  -0.000071    8
   10      0.252D-05      0.933D-08      -116.92655553    212.803617   0.311774  -0.220014  -0.000071    9
   11      0.383D-07      0.268D-08      -116.92655553    212.803616   0.311774  -0.220013  -0.000071    0

 Final occupancy:  12

 !RHF STATE 1.1 ENERGY               -116.926555527989
 Nuclear energy                        68.45779159
 One-electron energy                 -291.78615510
 Two-electron energy                  106.40180798
 Virial quotient                       -0.99940369
 !RHF STATE 1.1 DIPOLE MOMENT           0.31177377    -0.22001347    -0.00007101
 Dipole moment /Debye                   0.79239799    -0.55918185    -0.00018048


 **********************************************************************************************************************************
 DATASETS  * FILE   NREC   LENGTH (MB)   RECORD NAMES
              1      19       14.10       500      610      701      900      950      970     1000     1100     1400     1410   
                                          VAR    BASINP    GEOM    SYMINP    ZMAT    AOBASIS   BASIS      S        T        V 
                                         1200     1210     1080     1600      129      960     1650     1300     1700   
                                          H0       H01     AOSYM     SMH      P2S    ABASIS   MOLCAS    ERIS     OPER   

              2       7        1.86       500      610      700     1000     2100     2140      701   
                                          VAR    BASINP    GEOM     BASIS     RHF     MCSCF    GEOM   

 PROGRAMS   *        TOTAL        HF       INT   RESTART
 CPU TIMES  *         2.96      1.01      1.54      0.01
 REAL TIME  *         3.43 SEC
 DISK USED  *        56.39 MB      
 **********************************************************************************************************************************

1PROGRAM * MULTI (Direct Multiconfiguration SCF)       Authors: P.J. Knowles, H.-J. Werner (1984)     S.T. Elbert (1988)


 Number of closed-shell orbitals: 11 ( 11 )
 Number of active  orbitals:       2 (  2 )
 Number of external orbitals:     59 ( 59 )

 State symmetry 1

 Number of electrons:     2    Spin symmetry=Singlet   Space symmetry=1
 Number of states:        2
 Number of CSFs:          3

 Iteration controls:
             1  2  3  4  5  6  7  8  9 10 11 12 13 14 15 16 17 18 19 20 21 22 23 24 25 26 27 28 29 30 31 32 33 34 35 36 37 38 39
 DIAGCI      T  T  T  T  T  T  T  T  T  T  T  T  T  T  T  T  T  T  T  T  T  T  T  T  T  T  T  T  T  T  T  T  T  T  T  T  T  T  T
 WERNER      T  T  T  T  T  T  T  T  T  T  T  T  T  T  T  T  T  T  T  T  T  T  T  T  T  T  T  T  T  T  T  T  T  T  T  T  T  T  T
 INTERNAL    F  T  T  T  T  T  T  T  T  T  T  T  T  T  T  T  T  T  T  T  T  T  T  T  T  T  T  T  T  T  T  T  T  T  T  T  T  T  T

 Maximum number of shells:             2
 Maximum number of spin couplings:     1

 Storage for configuration lists       6, coupling coefficients      5, address lists     28

 Molecular orbitals read from record     2140.2  Type=MCSCF/NATURAL (state averaged)

 Wavefunction dump at record             2140.2

 Convergence thresholds  0.10E-01 (gradient)  0.10E-05 (energy)  0.10E-02 (step length)

 Weight factors for state symmetry  1:    0.50000   0.50000

 Eigenvalues of redundancy matrix
   1-  1    0.000000

 Number of orbital rotations:     789     (  22 Core/Active  649 Core/Virtual   0 Active/Active  118 Active/Virtual)
 Total number of variables:       795


 ITER. MIC  NCI  NEG     ENERGY(VAR)     ENERGY(PROJ)   ENERGY CHANGE     GRAD(0)  GRAD(ORB)   GRAD(CI)     STEP       TIME

   1   19    7    0    -116.93800286    -116.93800306   -0.00000020    0.00063435 0.00000000 0.00000000  0.43D-03      0.88

 ** WVFN ****  CONVERGENCE REACHED, FINAL GRADIENT:  0.61D-07



 Results for state 1.1
 =====================

 !MCSCF STATE 1.1 ENERGY             -116.939177192726
 Nuclear energy                        68.45779159
 Kinetic energy                       117.01024297
 One electron energy                 -291.80566604
 Two electron energy                  106.40869725
 Virial ratio                           1.99939265

 !MCSCF STATE 1.1 DIPOLE MOMENT         0.30419859    -0.21512659     0.00000562
 Dipole moment /Debye                   0.77314506    -0.54676144     0.00001429

 Results for state 2.1
 =====================

 !MCSCF STATE 2.1 ENERGY             -116.936828931757
 Nuclear energy                        68.45779159
 Kinetic energy                       116.99496891
 One electron energy                 -291.82985871
 Two electron energy                  106.43523819
 Virial ratio                           1.99950306

 !MCSCF STATE 2.1 DIPOLE MOMENT         0.20442440    -0.14234070     0.00036102
 Dipole moment /Debye                   0.51956098    -0.36177028     0.00091755

 State-averaged charge density matrix saved on record  2140.2 (density set 1)

 !MCSCF expec         <1.1|DMX|1.1>     0.304198591854 au =     0.773145057085 Debye
 !MCSCF trans         <2.1|DMX|1.1>     0.087238508717 au =     0.221723648986 Debye
 !MCSCF expec         <2.1|DMX|2.1>     0.204424404120 au =     0.519560977024 Debye

 !MCSCF expec         <1.1|DMY|1.1>    -0.215126592180 au =    -0.546761444152 Debye
 !MCSCF trans         <2.1|DMY|1.1>     0.123332735609 au =     0.313460014169 Debye
 !MCSCF expec         <2.1|DMY|2.1>    -0.142340700308 au =    -0.361770277090 Debye

 !MCSCF expec         <1.1|DMZ|1.1>     0.000005623573 au =     0.000014292760 Debye
 !MCSCF trans         <2.1|DMZ|1.1>     0.019102569396 au =     0.048550708325 Debye
 !MCSCF expec         <2.1|DMZ|2.1>     0.000361016048 au =     0.000917551167 Debye


 Natural orbital dump (state averaged) at molpro section   2140.2    (Orbital set 2)



 **********************************************************************************************************************************
 DATASETS  * FILE   NREC   LENGTH (MB)   RECORD NAMES
              1      20       19.87       500      610      701      900      950      970     1000     1100     1400     1410   
                                          VAR    BASINP    GEOM    SYMINP    ZMAT    AOBASIS   BASIS      S        T        V 
                                         1200     1210     1080     1600      129      960     1650     1300     1700     1380   
                                          H0       H01     AOSYM     SMH      P2S    ABASIS   MOLCAS    ERIS     OPER     JKOP   

              2       7        1.86       500      610      700     1000     2100     2140      701   
                                          VAR    BASINP    GEOM     BASIS     RHF     MCSCF    GEOM   

 PROGRAMS   *        TOTAL     MULTI        HF       INT   RESTART
 CPU TIMES  *         4.71      1.74      1.01      1.54      0.01
 REAL TIME  *         5.55 SEC
 DISK USED  *        56.39 MB      
 **********************************************************************************************************************************

1PROGRAM * RS2 (Multireference RS Perturbation Theory)     Authors: H.-J. Werner (1993), P. Celani (1998)


 Level shift=0.30

 Convergence thresholds:  THRVAR = 1.00D-10  THRDEN = 1.00D-08

 Number of optimized states:  2  Roots:   1   2
 Number of reference states:  2  Roots:   1   2

 Reference symmetry:                   1   Singlet 
 Number of electrons:                 24
 Maximum number of shells:             4
 Maximum number of spin couplings:     5

 Reference space:        3 conf        3 CSFs
 N elec internal:       55 conf       55 CSFs
 N-1 el internal:       98 conf      162 CSFs
 N-2 el internal:      125 conf      317 CSFs

 Number of electrons in valence space:                     18
 Maximum number of open shell orbitals in reference space:  2
 Maximum number of open shell orbitals in internal spaces:  6


 Number of core orbitals:           3 (   3 )
 Number of closed-shell orbitals:   8 (   8 )
 Number of active  orbitals:        2 (   2 )
 Number of external orbitals:      59 (  59 )

 Molecular orbitals read from record     2140.2  Type=MCSCF/NATURAL (state averaged)

 Coulomb and exchange operators available. No transformation done.

 Number of p-space configurations:   3

 Reference wavefunction optimized for reference space (refopt=1)

 State     Reference Energy 
   1        -116.93917719
   2        -116.93682893

 Number of blocks in overlap matrix:     2   Smallest eigenvalue:  0.10D+01
 Number of N-2 electron functions:     161
 Number of N-1 electron functions:     162

 Number of internal configurations:                   55
 Number of singly external configurations:          9558
 Number of doubly external configurations:        280722
 Total number of contracted configurations:       290335
 Total number of uncontracted configurations:     561027

 Weight factors for SA-density in H0:    0.500000  0.500000

 FIMAX=  0.34D-01  FXMAX=  0.31D-12  DIAG=  F  T  NOREF=1  NOINT=0  IHPPD=2

 Nuclear energy:                      68.45779159
 Core energy:                       -126.25423113
 Zeroth-order valence energy:        -11.24450808    -11.17714781
 Zeroth-order total energy:          -69.04094762    -68.97358734
 First-order energy:                 -47.89822958    -47.96324159

 Using uncontracted singles

 Diagonal Coupling coefficients finished.               Storage:   15839 words, CPU-Time:      0.02 seconds.
 Energy denominators for pairs finished in 0 passes.    Storage:   16545 words, CPU-time:      0.00 seconds.

 A level shift of 0.30 is applied.

  ITER. STATE  ROOT      NORM       CORR.ENERGY   TOTAL ENERGY   ENERGY CHANGE       DEN1      VAR(S)    VAR(P)      TIME
    1     1     1     1.01303257    -0.00390977  -116.94308696    -0.00390977    -0.36388361  0.13D-01  0.95D-01     0.29
    1     2     2     1.01435383    -0.00430615  -116.94113508    -0.00430615    -0.36579403  0.14D-01  0.95D-01     0.29
    2     1     1     1.10916413    -0.39791219  -117.33708938    -0.39400242     0.00009318  0.14D-04  0.86D-05     0.68
    2     2     2     1.11012343    -0.39928559  -117.33611452    -0.39497944     0.00001197  0.16D-04  0.95D-05     0.68
    3     1     1     1.10917616    -0.39796779  -117.33714498    -0.00005560    -0.00002437  0.30D-07  0.14D-07     1.07
    3     2     2     1.11012623    -0.39934231  -117.33617124    -0.00005672    -0.00002534  0.33D-07  0.18D-07     1.07
    4     1     1     1.10919292    -0.39797290  -117.33715009    -0.00000511     0.00000031  0.11D-09  0.50D-10     1.46
    4     2     2     1.11015031    -0.39934963  -117.33617856    -0.00000732    -0.00000008  0.12D-09  0.55D-10     1.46
    5     1     1     1.10919306    -0.39797294  -117.33715014    -0.00000004    -0.00000004  0.11D-11  0.17D-12     1.85
    5     2     2     1.11015032    -0.39934963  -117.33617856     0.00000000    -0.00000004  0.84D-12  0.16D-12     1.85
    6     1     1     1.10919308    -0.39797295  -117.33715014    -0.00000001     0.00000000  0.60D-14  0.24D-14     2.24
    6     2     2     1.11015036    -0.39934964  -117.33617857    -0.00000001     0.00000000  0.62D-14  0.16D-14     2.24
    7     1     1     1.10919308    -0.39797295  -117.33715014     0.00000000     0.00000000  0.83D-16  0.11D-16     2.63
    7     2     2     1.11015036    -0.39934964  -117.33617857     0.00000000     0.00000000  0.60D-16  0.11D-16     2.63

 Energies without level shift correction:

    7     1     1     1.10919308    -0.36521503  -117.30439222
    7     2     2     1.11015036    -0.36630453  -117.30313347

 Energy contributions for state 1.1:
 ===================================

            Energy contr.        Norm of FOWF
 Space I     -0.00145740          0.00095962
 Space S     -0.03186422          0.01297451
 Space P     -0.33189341          0.09525895

 Energy contributions for state 2.1:
 ===================================

            Energy contr.        Norm of FOWF
 Space I     -0.00055233          0.00046145
 Space S     -0.03425499          0.01439661
 Space P     -0.33149722          0.09529231


 =====================================
 Analysis of CPU times by interactions
 =====================================

       I      S      P

 I   0.0%
 S   1.5%   0.0%
 P   3.0%  20.5%  60.8%

 Initialization:   7.6%
 Other:            6.5%

 Total CPU:        2.6 seconds
 =====================================


 Initialize record     7000.1

 *******************************************
 * MS-CASPT2 analysis                      *
 *******************************************


 S final
                   1             2
         1     1.1091931     0.0000067
         2     0.0000067     1.1101504

 Heff final
                   1             2
         1  -117.3043922    -0.0000095
         2    -0.0000090  -117.3031335

 *******************************************
 * Diagonalization of Heff                 *
 * Unscaled effective Hamiltonian          *
 *******************************************

 Heff Brandow symmetrized
                   1             2
         1  -117.3043922    -0.0000092
         2    -0.0000092  -117.3031335

 MS-CASPT2 energies

 STATE       ENERGY     MIXING COEFFICIENTS
    1   -117.3043922    1.0000    0.0073
    2   -117.3031334   -0.0073    1.0000

 =====================================

 Heff Half Sum symmetrized
                   1             2
         1  -117.3043922    -0.0000092
         2    -0.0000092  -117.3031335

 MS-CASPT2 energies (unshifted)

 STATE       ENERGY     MIXING COEFFICIENTS
    1   -117.3043922    1.0000    0.0073
    2   -117.3031334   -0.0073    1.0000

 *******************************************
 * Diagonalization of Heff                 *
 * Scale diagonal effective Hamiltonian    *
 * Heff(scaled) = Heff(unscaled) - LS*Sii  *
 *******************************************

 Heff Half Sum symmetrized
                   1             2
         1  -117.3371501    -0.0000092
         2    -0.0000092  -117.3361786

 MS-CASPT2 energies

 STATE       ENERGY     MIXING COEFFICIENTS
    1   -117.3371502    1.0000    0.0095
    2   -117.3361784   -0.0095    1.0000

 Norm of Psi_mix recalculated     1.11015015
 
 *******************************************
 * End of MS-CASPT2 analysis               *
 * Properties not yet implemented          *
 *******************************************

 Now solve CP-CASPT2 equations

 A level shift of 0.30 is applied.

  ITER. STATE  ROOT      NORM       CORR.ENERGY   TOTAL ENERGY   ENERGY CHANGE       DEN1      VAR(S)    VAR(P)      TIME
    1     1     1     1.00096084    -0.00174565  -116.94092284    -0.00174565    -0.00003245  0.12D-05  0.83D-05     3.15
    1     2     2     1.02407008    -0.00777335  -116.94460229    -0.00777335    -0.51077173  0.24D-01  0.14D+00     3.15
    2     1     1     1.00000952    -0.00003535  -116.93921254     0.00171030     0.00000000  0.13D-08  0.76D-09     3.54
    2     2     2     1.16079593    -0.56018397  -117.49701290    -0.55241061    -0.00005265  0.27D-04  0.17D-04     3.54
    3     1     1     1.00000952    -0.00003536  -116.93921255     0.00000000     0.00000000  0.23D-11  0.13D-11     3.93
    3     2     2     1.16083246    -0.56028802  -117.49711696    -0.00010406    -0.00004479  0.71D-07  0.30D-07     3.93
    4     1     1     1.00000953    -0.00003536  -116.93921255     0.00000000     0.00000000  0.74D-14  0.36D-14     4.33
    4     2     2     1.16087040    -0.56029958  -117.49712852    -0.00001156    -0.00000039  0.26D-09  0.12D-09     4.33
    5     1     1     1.00000953    -0.00003536  -116.93921255     0.00000000     0.00000000  0.45D-16  0.78D-17     4.72
    5     2     2     1.16087048    -0.56029961  -117.49712854    -0.00000003    -0.00000010  0.22D-11  0.37D-12     4.72
    6     1     1     1.00000953    -0.00003536  -116.93921255     0.00000000     0.00000000  0.19D-18  0.23D-18     5.11
    6     2     2     1.16087055    -0.56029963  -117.49712856    -0.00000002     0.00000000  0.18D-13  0.42D-14     5.11
    7     1     1     1.00000953    -0.00003536  -116.93921255     0.00000000     0.00000000  0.00D+00  0.00D+00     5.49
    7     2     2     1.16087055    -0.56029963  -117.49712856     0.00000000     0.00000000  0.17D-15  0.34D-16     5.49

 Energies without level shift correction:

    7     1     1     1.00000953    -0.00003250  -116.93920969
    7     2     2     1.16087055    -0.51203846  -117.44886739

 Energy contributions for state 1.1:
 ===================================

            Energy contr.        Norm of FOWF
 Space I     -0.00000005          0.00000004
 Space S     -0.00000302          0.00000123
 Space P     -0.00002944          0.00000826

 Energy contributions for state 2.1:
 ===================================

            Energy contr.        Norm of FOWF
 Space I     -0.00123453          0.00107029
 Space S     -0.05396170          0.02377047
 Space P     -0.45684222          0.13602979


 =====================================
 Analysis of CPU times by interactions
 =====================================

       I      S      P

 I   0.0%
 S   2.4%   0.2%
 P   1.5%  19.6%  57.6%

 Initialization:  54.9%
 Other:          -36.2%

 Total CPU:        5.5 seconds
 =====================================



 Reference coefficients greater than 0.0500000
 =============================================
 22222222/\          -0.0023288   0.9999973
 2222222220           0.8822863   0.0020547
 2222222202          -0.4707075  -0.0010962



 RESULTS FOR STATE 1.1
 =====================

 Coefficient of reference function:   C(0) = 1.00000000

 Energy contributions of configuration classes

 Class           Norm          ECORR1        ECORR2
 +++++++++++++++++++++++++++++++++++++++++++++++++++
 Internals    0.00000004   -0.00000016    0.47375333
 Singles      0.00000123   -0.00000363   -0.08139532
 Pairs        0.00000826   -0.00003510   -0.79033103
 Total        1.00000953   -0.00003890   -0.39797303
 +++++++++++++++++++++++++++++++++++++++++++++++++++


 Reference energy                    -116.93917719
 Nuclear energy                        68.45779159
 Kinetic energy                       117.01026879
 One electron energy                 -291.80565164
 Two electron energy                  106.01070982
 Virial quotient                       -1.00279361
 Correlation energy                    -0.00003536
 !RSPT2 STATE 1.1 ENERGY             -117.337150231113
 !RSPT2 STATE 1.1 DIPOLE MOMENT         0.30438401    -0.21485789     0.00004841
 Dipole moment /Debye                   0.77361631    -0.54607852     0.00012305



 RESULTS FOR STATE 2.1
 =====================

 Coefficient of reference function:   C(0) = 1.00000000

 Energy contributions of configuration classes

 Class           Norm          ECORR1        ECORR2
 +++++++++++++++++++++++++++++++++++++++++++++++++++
 Internals    0.00107029   -0.00081512    0.33560459
 Singles      0.02377047   -0.04290149   -0.07554564
 Pairs        0.13602979   -0.38863892   -0.65940851
 Total        1.16087055   -0.43235553   -0.39934955
 +++++++++++++++++++++++++++++++++++++++++++++++++++


 Reference energy                    -116.93682893
 Nuclear energy                        68.45779159
 Kinetic energy                       117.32496853
 One electron energy                 -291.58045787
 Two electron energy                  105.78648779
 Virial quotient                       -1.00009555
 Correlation energy                    -0.56029963
 !RSPT2 STATE 2.1 ENERGY             -117.336178486506
 !RSPT2 STATE 2.1 DIPOLE MOMENT         0.24455357    -0.17128451     0.00032616
 Dipole moment /Debye                   0.62155247    -0.43533329     0.00082896

 !RSPT overlap           <2.1||1.1>    -0.001145803666

 !RSPT trans          <2.1|DMX|1.1>     0.065983739710 au =     0.167702953172 Debye
 !RSPT trans          <2.1|DMY|1.1>     0.093999213081 au =     0.238906519982 Debye
 !RSPT trans          <2.1|DMZ|1.1>     0.014322885344 au =     0.036402758932 Debye

 *** Long output written to logfile /u/s/ben/103020/tmp.log ***


 Solving MCSCF z-vector equations for state  1.1, requested accuracy=      0.10D-05
 Convergence reached in  16 iterations ( 16 expansion vectors), accuracy=  0.43D-06

 Reference dipole moments:              0.25431150    -0.17873365     0.00018332
 !RSPT2 dipole moments (ED):            0.25555416    -0.17439270     0.00077485

 RSPT2 Gradient info saved on record         5200.1

 CPU-time for rhs:            5.91 sec
 CPU-time for cpmcscf:        0.70 sec
 CPU-time for densities:      0.00 sec


 **********************************************************************************************************************************
 DATASETS  * FILE   NREC   LENGTH (MB)   RECORD NAMES
              1      27       32.07       500      610      701      900      950      970     1000     1100     1400     1410   
                                          VAR    BASINP    GEOM    SYMINP    ZMAT    AOBASIS   BASIS      S        T        V 
                                         1200     1210     1080     1600      129      960     1650     1300     1700     1380   
                                          H0       H01     AOSYM     SMH      P2S    ABASIS   MOLCAS    ERIS     OPER     JKOP   
                                         7000     7001     7002     5200     5210     7009     7005   
                                                                   RS2GRAD  RS2GRAD    

              2       7        1.86       500      610      700     1000     2100     2140      701   
                                          VAR    BASINP    GEOM     BASIS     RHF     MCSCF    GEOM   

 PROGRAMS   *        TOTAL       RS2     MULTI        HF       INT   RESTART
 CPU TIMES  *        17.91     13.19      1.74      1.01      1.54      0.01
 REAL TIME  *        20.74 SEC
 DISK USED  *       115.78 MB      
 **********************************************************************************************************************************

1PROGRAM * ALASKA (Gradient of the energy)     Author: R. Lindh


 RSPT2 Gradient info restored from record    5200.1

 Number of core orbitals:           3 (   3 )
 Number of closed-shell orbitals:   8 (   8 )
 Number of active  orbitals:        2 (   2 )
 Number of external orbitals:      59 (  59 )

 Integral thresholds in T2TRAN:            1.0D-10 (PROD)

 Available memory for Transformation:  47784433 words
 Memory needed for incore algorithm:     546209 words
 Minimum memory needed:                  114209 words

 Memory used for transformation:           0.55 MW
 Available memory for gradients:          49.24 MW

 CPU for transformation:                   0.71 sec
 CPU for integrals and gradient:           4.20 sec
 Total CPU:                                4.91 sec

 Prescreening statistics:
 ========================

 Total number of shell quadruplets:        2.68D+04
 Number of shell quadruplets processed:    2.25D+04 ( 83.89%)

 RSPT2 GRADIENT FOR STATE 1.1

 Atom          dE/dx               dE/dy               dE/dz

   1        -0.012335165         0.008850572        -0.001678547
   2         0.022294320        -0.015579661         0.000064596
   3        -0.012355812         0.008553928         0.001724339
   4        -0.001964411         0.000553229         0.005109555
   5         0.001903614        -0.000184031        -0.002432707
   6         0.001185523        -0.001386064        -0.002128325
   7         0.000574379        -0.001554622         0.001788382
   8        -0.000862966         0.001602074        -0.005072775
   9         0.001560518        -0.000855424         0.002625482



 **********************************************************************************************************************************
 DATASETS  * FILE   NREC   LENGTH (MB)   RECORD NAMES
              1      28       32.09       500      610      701      900      950      970     1000     1100     1400     1410   
                                          VAR    BASINP    GEOM    SYMINP    ZMAT    AOBASIS   BASIS      S        T        V 
                                         1200     1210     1080     1600      129      960     1650     1300     1700     1380   
                                          H0       H01     AOSYM     SMH      P2S    ABASIS   MOLCAS    ERIS     OPER     JKOP   
                                         7000     7001     7002     5200     5210     7009     7005      702   
                                                                   RS2GRAD  RS2GRAD                     GEOM   

              2       8        1.88       500      610      700     1000     2100     2140      701      702   
                                          VAR    BASINP    GEOM     BASIS     RHF     MCSCF    GEOM     GEOM   

 PROGRAMS   *        TOTAL    FORCES       RS2     MULTI        HF       INT   RESTART
 CPU TIMES  *        23.17      5.25     13.19      1.74      1.01      1.54      0.01
 REAL TIME  *        26.32 SEC
 DISK USED  *       115.78 MB      
 **********************************************************************************************************************************

1PROGRAM * RS2 (Multireference RS Perturbation Theory)     Authors: H.-J. Werner (1993), P. Celani (1998)


 Level shift=0.30

 Convergence thresholds:  THRVAR = 1.00D-10  THRDEN = 1.00D-08

 Number of optimized states:  2  Roots:   1   2
 Number of reference states:  2  Roots:   1   2

 Reference symmetry:                   1   Singlet 
 Number of electrons:                 24
 Maximum number of shells:             4
 Maximum number of spin couplings:     5

 Reference space:        3 conf        3 CSFs
 N elec internal:       55 conf       55 CSFs
 N-1 el internal:       98 conf      162 CSFs
 N-2 el internal:      125 conf      317 CSFs

 Number of electrons in valence space:                     18
 Maximum number of open shell orbitals in reference space:  2
 Maximum number of open shell orbitals in internal spaces:  6


 Number of core orbitals:           3 (   3 )
 Number of closed-shell orbitals:   8 (   8 )
 Number of active  orbitals:        2 (   2 )
 Number of external orbitals:      59 (  59 )

 Molecular orbitals read from record     2140.2  Type=MCSCF/NATURAL (state averaged)

 Coulomb and exchange operators available. No transformation done.

 Number of p-space configurations:   3

 Reference wavefunction optimized for reference space (refopt=1)

 State     Reference Energy 
   1        -116.93917719
   2        -116.93682893

 Number of blocks in overlap matrix:     2   Smallest eigenvalue:  0.10D+01
 Number of N-2 electron functions:     161
 Number of N-1 electron functions:     162

 Number of internal configurations:                   55
 Number of singly external configurations:          9558
 Number of doubly external configurations:        280722
 Total number of contracted configurations:       290335
 Total number of uncontracted configurations:     561027

 Weight factors for SA-density in H0:    0.500000  0.500000

 FIMAX=  0.34D-01  FXMAX=  0.26D-12  DIAG=  F  T  NOREF=1  NOINT=0  IHPPD=2

 Nuclear energy:                      68.45779159
 Core energy:                       -126.25423113
 Zeroth-order valence energy:        -11.24450808    -11.17714781
 Zeroth-order total energy:          -69.04094762    -68.97358734
 First-order energy:                 -47.89822958    -47.96324159

 Using uncontracted singles

 Diagonal Coupling coefficients finished.               Storage:   15839 words, CPU-Time:      0.01 seconds.
 Energy denominators for pairs finished in 0 passes.    Storage:   16545 words, CPU-time:      0.00 seconds.

 A level shift of 0.30 is applied.

  ITER. STATE  ROOT      NORM       CORR.ENERGY   TOTAL ENERGY   ENERGY CHANGE       DEN1      VAR(S)    VAR(P)      TIME
    1     1     1     1.01303257    -0.00390977  -116.94308696    -0.00390977    -0.36388361  0.13D-01  0.95D-01     0.29
    1     2     2     1.01435383    -0.00430615  -116.94113508    -0.00430615    -0.36579403  0.14D-01  0.95D-01     0.29
    2     1     1     1.10916413    -0.39791219  -117.33708938    -0.39400242     0.00009318  0.14D-04  0.86D-05     0.68
    2     2     2     1.11012343    -0.39928559  -117.33611452    -0.39497944     0.00001197  0.16D-04  0.95D-05     0.68
    3     1     1     1.10917616    -0.39796779  -117.33714498    -0.00005560    -0.00002437  0.30D-07  0.14D-07     1.07
    3     2     2     1.11012623    -0.39934231  -117.33617124    -0.00005672    -0.00002534  0.33D-07  0.18D-07     1.07
    4     1     1     1.10919292    -0.39797290  -117.33715009    -0.00000511     0.00000031  0.11D-09  0.50D-10     1.46
    4     2     2     1.11015031    -0.39934963  -117.33617856    -0.00000732    -0.00000008  0.12D-09  0.55D-10     1.46
    5     1     1     1.10919306    -0.39797294  -117.33715014    -0.00000004    -0.00000004  0.11D-11  0.17D-12     1.85
    5     2     2     1.11015032    -0.39934963  -117.33617856     0.00000000    -0.00000004  0.84D-12  0.16D-12     1.85
    6     1     1     1.10919308    -0.39797295  -117.33715014    -0.00000001     0.00000000  0.60D-14  0.24D-14     2.24
    6     2     2     1.11015036    -0.39934964  -117.33617857    -0.00000001     0.00000000  0.62D-14  0.16D-14     2.24
    7     1     1     1.10919308    -0.39797295  -117.33715014     0.00000000     0.00000000  0.83D-16  0.11D-16     2.63
    7     2     2     1.11015036    -0.39934964  -117.33617857     0.00000000     0.00000000  0.60D-16  0.11D-16     2.63

 Energies without level shift correction:

    7     1     1     1.10919308    -0.36521503  -117.30439222
    7     2     2     1.11015036    -0.36630453  -117.30313347

 Energy contributions for state 1.1:
 ===================================

            Energy contr.        Norm of FOWF
 Space I     -0.00145740          0.00095962
 Space S     -0.03186422          0.01297451
 Space P     -0.33189341          0.09525895

 Energy contributions for state 2.1:
 ===================================

            Energy contr.        Norm of FOWF
 Space I     -0.00055233          0.00046145
 Space S     -0.03425499          0.01439661
 Space P     -0.33149722          0.09529231


 =====================================
 Analysis of CPU times by interactions
 =====================================

       I      S      P

 I   0.0%
 S   1.5%   0.0%
 P   3.0%  20.5%  60.8%

 Initialization:   7.2%
 Other:            6.8%

 Total CPU:        2.6 seconds
 =====================================


 Initialize record     7000.1

 *******************************************
 * MS-CASPT2 analysis                      *
 *******************************************


 S final
                   1             2
         1     1.1091931     0.0000067
         2     0.0000067     1.1101504

 Heff final
                   1             2
         1  -117.3043922    -0.0000095
         2    -0.0000090  -117.3031335

 *******************************************
 * Diagonalization of Heff                 *
 * Unscaled effective Hamiltonian          *
 *******************************************

 Heff Brandow symmetrized
                   1             2
         1  -117.3043922    -0.0000092
         2    -0.0000092  -117.3031335

 MS-CASPT2 energies

 STATE       ENERGY     MIXING COEFFICIENTS
    1   -117.3043922    1.0000    0.0073
    2   -117.3031334   -0.0073    1.0000

 =====================================

 Heff Half Sum symmetrized
                   1             2
         1  -117.3043922    -0.0000092
         2    -0.0000092  -117.3031335

 MS-CASPT2 energies (unshifted)

 STATE       ENERGY     MIXING COEFFICIENTS
    1   -117.3043922    1.0000    0.0073
    2   -117.3031334   -0.0073    1.0000

 *******************************************
 * Diagonalization of Heff                 *
 * Scale diagonal effective Hamiltonian    *
 * Heff(scaled) = Heff(unscaled) - LS*Sii  *
 *******************************************

 Heff Half Sum symmetrized
                   1             2
         1  -117.3371501    -0.0000092
         2    -0.0000092  -117.3361786

 MS-CASPT2 energies

 STATE       ENERGY     MIXING COEFFICIENTS
    1   -117.3371502    1.0000    0.0095
    2   -117.3361784   -0.0095    1.0000

 Norm of Psi_mix recalculated     1.10919330
 
 *******************************************
 * End of MS-CASPT2 analysis               *
 * Properties not yet implemented          *
 *******************************************

 Now solve CP-CASPT2 equations

 A level shift of 0.30 is applied.

  ITER. STATE  ROOT      NORM       CORR.ENERGY   TOTAL ENERGY   ENERGY CHANGE       DEN1      VAR(S)    VAR(P)      TIME
    1     1     1     1.02200812    -0.00805983  -116.94723703    -0.00805983    -0.50683175  0.21D-01  0.14D+00     3.15
    1     2     2     1.00046270    -0.00069114  -116.93752007    -0.00069114    -0.00003361  0.13D-05  0.90D-05     3.15
    2     1     1     1.15869401    -0.55705220  -117.49622939    -0.54899237     0.00011950  0.24D-04  0.15D-04     3.54
    2     2     2     1.00001035    -0.00003684  -116.93686577     0.00065431     0.00000001  0.15D-08  0.88D-09     3.54
    3     1     1     1.15874510    -0.55715368  -117.49633088    -0.00010148    -0.00004186  0.63D-07  0.24D-07     3.93
    3     2     2     1.00001035    -0.00003684  -116.93686577    -0.00000001     0.00000000  0.35D-11  0.16D-11     3.93
    4     1     1     1.15877069    -0.55716151  -117.49633870    -0.00000782     0.00000054  0.23D-09  0.12D-09     4.33
    4     2     2     1.00001035    -0.00003684  -116.93686577     0.00000000     0.00000000  0.14D-13  0.67D-14     4.33
    5     1     1     1.15877103    -0.55716161  -117.49633880    -0.00000010    -0.00000009  0.27D-11  0.38D-12     4.72
    5     2     2     1.00001035    -0.00003684  -116.93686577     0.00000000     0.00000000  0.17D-15  0.23D-16     4.72
    6     1     1     1.15877106    -0.55716162  -117.49633881    -0.00000001     0.00000000  0.15D-13  0.62D-14     5.11
    6     2     2     1.00001035    -0.00003684  -116.93686577     0.00000000     0.00000000  0.97D-18  0.43D-18     5.11
    7     1     1     1.15877107    -0.55716162  -117.49633881     0.00000000     0.00000000  0.22D-15  0.27D-16     5.50
    7     2     2     1.00001035    -0.00003684  -116.93686577     0.00000000     0.00000000  0.13D-19  0.00D+00     5.50

 Energies without level shift correction:

    7     1     1     1.15877107    -0.50953030  -117.44870749
    7     2     2     1.00001035    -0.00003374  -116.93686267

 Energy contributions for state 1.1:
 ===================================

            Energy contr.        Norm of FOWF
 Space I     -0.00284202          0.00191453
 Space S     -0.04951879          0.02097976
 Space P     -0.45716949          0.13587678

 Energy contributions for state 2.1:
 ===================================

            Energy contr.        Norm of FOWF
 Space I     -0.00000014          0.00000010
 Space S     -0.00000297          0.00000125
 Space P     -0.00003063          0.00000901


 =====================================
 Analysis of CPU times by interactions
 =====================================

       I      S      P

 I   0.0%
 S   1.5%   0.0%
 P   1.5%  19.6%  58.5%

 Initialization:  54.9%
 Other:          -36.0%

 Total CPU:        5.5 seconds
 =====================================



 Reference coefficients greater than 0.0500000
 =============================================
 22222222/\          -0.0023288   0.9999973
 2222222220           0.8822863   0.0020547
 2222222202          -0.4707075  -0.0010962



 RESULTS FOR STATE 1.1
 =====================

 Coefficient of reference function:   C(0) = 1.00000000

 Energy contributions of configuration classes

 Class           Norm          ECORR1        ECORR2
 +++++++++++++++++++++++++++++++++++++++++++++++++++
 Internals    0.00191453   -0.00203037    0.33259006
 Singles      0.02097976   -0.03964594   -0.06964289
 Pairs        0.13587678   -0.38901566   -0.66092022
 Total        1.15877107   -0.43069198   -0.39797304
 +++++++++++++++++++++++++++++++++++++++++++++++++++


 Reference energy                    -116.93917719
 Nuclear energy                        68.45779159
 Kinetic energy                       117.34110407
 One electron energy                 -291.58275133
 Two electron energy                  105.78780951
 Virial quotient                       -0.99996630
 Correlation energy                    -0.55716162
 !RSPT2 STATE 1.1 ENERGY             -117.337150231113
 !RSPT2 STATE 1.1 DIPOLE MOMENT         0.27451707    -0.19365252     0.00004597
 Dipole moment /Debye                   0.69770710    -0.49218338     0.00011684



 RESULTS FOR STATE 2.1
 =====================

 Coefficient of reference function:   C(0) = 1.00000000

 Energy contributions of configuration classes

 Class           Norm          ECORR1        ECORR2
 +++++++++++++++++++++++++++++++++++++++++++++++++++
 Internals    0.00000010   -0.00000009    0.46155122
 Singles      0.00000125   -0.00000384   -0.08055768
 Pairs        0.00000901   -0.00003529   -0.78034308
 Total        1.00001035   -0.00003922   -0.39934954
 +++++++++++++++++++++++++++++++++++++++++++++++++++


 Reference energy                    -116.93682893
 Nuclear energy                        68.45779159
 Kinetic energy                       116.99499629
 One electron energy                 -291.82984280
 Two electron energy                  106.03587272
 Virial quotient                       -1.00291621
 Correlation energy                    -0.00003684
 !RSPT2 STATE 2.1 ENERGY             -117.336178486505
 !RSPT2 STATE 2.1 DIPOLE MOMENT         0.20427055    -0.14256453     0.00032447
 Dipole moment /Debye                   0.51916996    -0.36233917     0.00082465

 !RSPT overlap           <2.1||1.1>     0.001189381135

 !RSPT trans          <2.1|DMX|1.1>     0.070934622294 au =     0.180286017330 Debye
 !RSPT trans          <2.1|DMY|1.1>     0.099841089716 au =     0.253754116800 Debye
 !RSPT trans          <2.1|DMZ|1.1>     0.015285694934 au =     0.038849816531 Debye

 Solving MCSCF z-vector equations for state  1.1, requested accuracy=      0.10D-05
 Convergence reached in  16 iterations ( 16 expansion vectors), accuracy=  0.42D-06

 Reference dipole moments:              0.25431150    -0.17873365     0.00018332
 !RSPT2 dipole moments (ED):            0.25930079    -0.18857609    -0.00048458

 RSPT2 Gradient info saved on record         5201.1

 CPU-time for rhs:            5.91 sec
 CPU-time for cpmcscf:        0.72 sec
 CPU-time for densities:      0.01 sec


 **********************************************************************************************************************************
 DATASETS  * FILE   NREC   LENGTH (MB)   RECORD NAMES
              1      32       44.33       500      610      701      900      950      970     1000     1100     1400     1410   
                                          VAR    BASINP    GEOM    SYMINP    ZMAT    AOBASIS   BASIS      S        T        V 
                                         1200     1210     1080     1600      129      960     1650     1300     1700     1380   
                                          H0       H01     AOSYM     SMH      P2S    ABASIS   MOLCAS    ERIS     OPER     JKOP   
                                         7001     7002     5200     5210     7009     7005      702     7000     7003     7004   
                                                          RS2GRAD  RS2GRAD                     GEOM   
                                         5201     5211   
                                        RS2GRAD  RS2GRAD    

              2       8        1.88       500      610      700     1000     2100     2140      701      702   
                                          VAR    BASINP    GEOM     BASIS     RHF     MCSCF    GEOM     GEOM   

 PROGRAMS   *        TOTAL       RS2    FORCES       RS2     MULTI        HF       INT   RESTART
 CPU TIMES  *        36.41     13.22      5.25     13.19      1.74      1.01      1.54      0.01
 REAL TIME  *        41.47 SEC
 DISK USED  *       128.34 MB      
 **********************************************************************************************************************************

1PROGRAM * ALASKA (Gradient of the energy)     Author: R. Lindh


 RSPT2 Gradient info restored from record    5201.1

 Number of core orbitals:           3 (   3 )
 Number of closed-shell orbitals:   8 (   8 )
 Number of active  orbitals:        2 (   2 )
 Number of external orbitals:      59 (  59 )

 Integral thresholds in T2TRAN:            1.0D-10 (PROD)

 Available memory for Transformation:  47784433 words
 Memory needed for incore algorithm:     546209 words
 Minimum memory needed:                  114209 words

 Memory used for transformation:           0.55 MW
 Available memory for gradients:          49.24 MW

 CPU for transformation:                   0.70 sec
 CPU for integrals and gradient:           4.39 sec
 Total CPU:                                5.09 sec

 Prescreening statistics:
 ========================

 Total number of shell quadruplets:        2.68D+04
 Number of shell quadruplets processed:    2.25D+04 ( 83.81%)

 RSPT2 GRADIENT FOR STATE 1.1

 Atom          dE/dx               dE/dy               dE/dz

   1        -0.034128594         0.025284538        -0.005645417
   2         0.061804298        -0.044919341        -0.000117193
   3        -0.034485679         0.024510997         0.005847587
   4        -0.004918800         0.001205631         0.014238086
   5         0.005348167        -0.000392755        -0.006164169
   6         0.002846508        -0.003430029        -0.006472256
   7         0.001688251        -0.004524412         0.005699580
   8        -0.002489555         0.004114891        -0.014205217
   9         0.004335404        -0.001849520         0.006818998



 **********************************************************************************************************************************
 DATASETS  * FILE   NREC   LENGTH (MB)   RECORD NAMES
              1      32       44.33       500      610      701      900      950      970     1000     1100     1400     1410   
                                          VAR    BASINP    GEOM    SYMINP    ZMAT    AOBASIS   BASIS      S        T        V 
                                         1200     1210     1080     1600      129      960     1650     1300     1700     1380   
                                          H0       H01     AOSYM     SMH      P2S    ABASIS   MOLCAS    ERIS     OPER     JKOP   
                                         7001     7002     5200     5210     7009     7005      702     7000     7003     7004   
                                                          RS2GRAD  RS2GRAD                     GEOM   
                                         5201     5211   
                                        RS2GRAD  RS2GRAD    

              2       8        1.88       500      610      700     1000     2100     2140      701      702   
                                          VAR    BASINP    GEOM     BASIS     RHF     MCSCF    GEOM     GEOM   

 PROGRAMS   *        TOTAL    FORCES       RS2    FORCES       RS2     MULTI        HF       INT   RESTART
 CPU TIMES  *        41.92      5.50     13.22      5.25     13.19      1.74      1.01      1.54      0.01
 REAL TIME  *        47.02 SEC
 DISK USED  *       128.34 MB      
 **********************************************************************************************************************************

        RS2             RS2             MULTI           HF-SCF  
   -117.33617849   -117.33617849   -116.93682893   -116.92655553
 **********************************************************************************************************************************
 Variable memory released
