[Molden Format]
[Atoms] Angs
 c       1                    6  6.695000000000e-01  0.000000000000e+00 -1.000000000000e-03
 c       2                    6 -6.695000000000e-01  0.000000000000e+00 -2.000000000000e-04
 h       3                    1  1.231400000000e+00  9.397000000000e-01  8.400000000000e-03
 h       4                    1  1.231400000000e+00 -9.397000000000e-01 -4.600000000000e-03
 h       5                    1 -1.231400000000e+00 -9.397000000000e-01 -1.090000000000e-02
 h       6                    1 -1.231400000000e+00  9.397000000000e-01  6.600000000000e-03
[GTO]
1
 s           5
      1.238401693800e+03      5.517365048110e-03
      1.862900499200e+02      4.108882855595e-02
      4.225117634600e+01      1.822538212649e-01
      1.167655793200e+01      4.682845943743e-01
      3.593050648200e+00      4.457581733600e-01
 s           1
      4.024514736300e-01      1.000000000000e+00
 s           1
      1.309018266800e-01      1.000000000000e+00
 p           3
      9.468097062100e+00      5.688833201104e-02
      2.010354514200e+00      3.129405933647e-01
      5.477100470700e-01      7.606501650914e-01
 p           1
      1.526861379500e-01      1.000000000000e+00
 d           1
      8.000000000000e-01      1.000000000000e+00

2
 s           5
      1.238401693800e+03      5.517365048110e-03
      1.862900499200e+02      4.108882855595e-02
      4.225117634600e+01      1.822538212649e-01
      1.167655793200e+01      4.682845943743e-01
      3.593050648200e+00      4.457581733600e-01
 s           1
      4.024514736300e-01      1.000000000000e+00
 s           1
      1.309018266800e-01      1.000000000000e+00
 p           3
      9.468097062100e+00      5.688833201104e-02
      2.010354514200e+00      3.129405933647e-01
      5.477100470700e-01      7.606501650914e-01
 p           1
      1.526861379500e-01      1.000000000000e+00
 d           1
      8.000000000000e-01      1.000000000000e+00

3
 s           3
      1.301070100000e+01      3.348548481299e-02
      1.962257200000e+00      2.347218708812e-01
      4.445379600000e-01      8.137702852596e-01
 s           1
      1.219496200000e-01      1.000000000000e+00
 p           1
      8.000000000000e-01      1.000000000000e+00

4
 s           3
      1.301070100000e+01      3.348548481299e-02
      1.962257200000e+00      2.347218708812e-01
      4.445379600000e-01      8.137702852596e-01
 s           1
      1.219496200000e-01      1.000000000000e+00
 p           1
      8.000000000000e-01      1.000000000000e+00

5
 s           3
      1.301070100000e+01      3.348548481299e-02
      1.962257200000e+00      2.347218708812e-01
      4.445379600000e-01      8.137702852596e-01
 s           1
      1.219496200000e-01      1.000000000000e+00
 p           1
      8.000000000000e-01      1.000000000000e+00

6
 s           3
      1.301070100000e+01      3.348548481299e-02
      1.962257200000e+00      2.347218708812e-01
      4.445379600000e-01      8.137702852596e-01
 s           1
      1.219496200000e-01      1.000000000000e+00
 p           1
      8.000000000000e-01      1.000000000000e+00


[5D]
[7F]
[9G]
[MO]
 Ene=  -11.253147
 Spin=  Alpha
 Occup=    2.000000
   1    -0.7006487595144867
   2    -0.0230076972382663
   3     0.0112914335043261
   4    -0.0010540397825948
   5     0.0000000530988530
   6    -0.0000087834533186
   7     0.0004579573057749
   8    -0.0000001310825889
   9     0.0000141886510074
  10     0.0007962295768932
  11    -0.0000033338328818
  12    -0.0000084773113987
  13    -0.0000219835734520
  14     0.0000000743411541
  15    -0.7007992827188212
  16    -0.0230134470410290
  17     0.0112960388529416
  18     0.0010538298207485
  19    -0.0000000723029631
  20     0.0000062689904696
  21    -0.0004575103411404
  22     0.0000001012756626
  23    -0.0000114161734231
  24     0.0007965076485156
  25    -0.0000021239094064
  26    -0.0000135526008170
  27    -0.0000220044990594
  28     0.0000000741197160
  29     0.0014180464412341
  30    -0.0032783683093517
  31    -0.0000857219143983
  32    -0.0007318619292944
  33    -0.0000081610764493
  34     0.0014181598193560
  35    -0.0032785925657791
  36    -0.0000856532014360
  37     0.0007318214358523
  38     0.0000017561992913
  39     0.0014184141522067
  40    -0.0032791655656590
  41     0.0000859186792539
  42     0.0007320922249072
  43     0.0000091871577442
  44     0.0014185362982660
  45    -0.0032793254918917
  46     0.0000858711270563
  47    -0.0007320697690524
  48    -0.0000046537408378
 Ene=  -11.251724
 Spin=  Alpha
 Occup=    2.000000
   1     0.7006304964286993
   2     0.0272407436861261
   3    -0.0228945757365942
   4    -0.0009249807496485
   5    -0.0000001343852919
   6     0.0000131841418411
   7     0.0020109341338482
   8     0.0000000778966907
   9    -0.0000143645329835
  10    -0.0016756756245291
  11     0.0000026726353254
  12     0.0000195330731053
  13     0.0001077478173673
  14    -0.0000000601384121
  15    -0.7004799636380582
  16    -0.0272356571899578
  17     0.0228918591295440
  18    -0.0009252696918868
  19    -0.0000001502695226
  20     0.0000100754006305
  21     0.0020111077896911
  22     0.0000002411431845
  23    -0.0000089475789315
  24     0.0016754071554052
  25    -0.0000008907550647
  26    -0.0000258172977143
  27    -0.0001077811739553
  28     0.0000000523520980
  29    -0.0018350254142370
  30     0.0040657952088561
  31     0.0008068246679353
  32     0.0010314574803792
  33     0.0000112276557088
  34    -0.0018351904901646
  35     0.0040660484791252
  36     0.0008067927352845
  37    -0.0010314342586242
  38    -0.0000028388037442
  39     0.0018346875510487
  40    -0.0040648814260143
  41     0.0008068197343234
  42     0.0010313016505930
  43     0.0000123760271595
  44     0.0018348223884909
  45    -0.0040652836380021
  46     0.0008067862579962
  47    -0.0010312906888180
  48    -0.0000070325772328
 Ene=   -1.029302
 Spin=  Alpha
 Occup=    2.000000
   1    -0.2005340354893077
   2     0.3871717235892003
   3     0.1111608353972317
   4    -0.1296340881495570
   5    -0.0000030348238752
   6     0.0001459340949859
   7    -0.0225844780268722
   8     0.0000037384064111
   9    -0.0000498893607137
  10    -0.0117432384661544
  11    -0.0000135143002931
  12     0.0000360347607189
  13     0.0147168843412143
  14    -0.0000002306901797
  15    -0.2005310002042039
  16     0.3871669727194678
  17     0.1111615089847355
  18     0.1296368360649034
  19     0.0000040509778781
  20    -0.0002172546691409
  21     0.0225844897013030
  22    -0.0000023078817333
  23    -0.0000355973341954
  24    -0.0117430844481407
  25    -0.0000194356826226
  26     0.0000552195402208
  27     0.0147172431740218
  28    -0.0000001726632603
  29     0.1034237803892186
  30     0.0106205389848214
  31    -0.0094754197479386
  32    -0.0127411237605145
  33    -0.0001241147016202
  34     0.1034317080146426
  35     0.0106238465520343
  36    -0.0094764516748376
  37     0.0127421935563008
  38     0.0000568743904597
  39     0.1034190050753706
  40     0.0106197750637649
  41     0.0094749515714803
  42     0.0127403702651278
  43     0.0001351364066269
  44     0.1034270846744849
  45     0.0106229304395771
  46     0.0094759746326356
  47    -0.0127412762981360
  48    -0.0000974096662383
 Ene=   -0.783983
 Spin=  Alpha
 Occup=    2.000000
   1    -0.1537957391572124
   2     0.3076454492942124
   3     0.1506128572490692
   4     0.1575071283809368
   5    -0.0000197916397842
   6    -0.0002020049310339
   7     0.0517257884462532
   8    -0.0000020171161683
   9    -0.0004241137511490
  10    -0.0037464793379929
  11     0.0000806440215652
  12     0.0001181264360873
  13    -0.0121422108353432
  14    -0.0000014678483452
  15     0.1537989711076208
  16    -0.3076535564948311
  17    -0.1506161849715238
  18     0.1574876092174484
  19    -0.0000071412650406
  20    -0.0003181302991230
  21     0.0517212574091357
  22     0.0000022866613931
  23    -0.0004107252600077
  24     0.0037458191824949
  25    -0.0000643884516675
  26    -0.0001842184875656
  27     0.0121407958430802
  28     0.0000004787731427
  29     0.1915579361509548
  30     0.0359560052563446
  31    -0.0071695093440796
  32    -0.0171526588699119
  33    -0.0001786567920014
  34     0.1915927343877300
  35     0.0359652309286386
  36    -0.0071716007136398
  37     0.0171551211378058
  38     0.0000600892506593
  39    -0.1915608238222185
  40    -0.0359609921263288
  41    -0.0071699491556786
  42    -0.0171519629907671
  43    -0.0002030866223949
  44    -0.1915763635735529
  45    -0.0359589439860704
  46    -0.0071711096292549
  47     0.0171539006036298
  48     0.0001149006472910
 Ene=   -0.649157
 Spin=  Alpha
 Occup=    2.000000
   1    -0.0000052286945220
   2     0.0000116146552969
   3    -0.0000001058609620
   4     0.0000053598848949
   5     0.3165719570710893
   6     0.0024982843792144
   7     0.0000014891900532
   8     0.1255263057582244
   9     0.0013270944784355
  10     0.0000011504763403
  11    -0.0000114508934946
  12     0.0001174138533571
  13     0.0000001294599894
  14     0.0010477803261524
  15     0.0000070869267877
  16    -0.0000159909700850
  17    -0.0000181462358076
  18     0.0000080487910141
  19     0.3165605228300120
  20     0.0026388739889660
  21     0.0000090957449222
  22     0.1255317446345160
  23     0.0007098806502584
  24    -0.0000011751048773
  25    -0.0000284595738724
  26    -0.0000791777153048
  27    -0.0000002761064501
  28    -0.0010462412993150
  29     0.2050311139586469
  30     0.0516879412734499
  31    -0.0099007155959914
  32    -0.0096697491540082
  33    -0.0000889102715677
  34    -0.2050113963749714
  35    -0.0516690152108678
  36     0.0099000587630161
  37    -0.0096686488201026
  38    -0.0000124779415710
  39    -0.2050213294584414
  40    -0.0516725667813080
  41    -0.0099000632785492
  42    -0.0096694562663724
  43    -0.0001294116182395
  44     0.2050050927191266
  45     0.0516780131721762
  46     0.0098998194267619
  47    -0.0096681981541092
  48    -0.0000830437297577
 Ene=   -0.593251
 Spin=  Alpha
 Occup=    2.000000
   1     0.0086044900059577
   2    -0.0297490034280807
   3     0.0362757847831721
   4     0.4073453672875204
   5    -0.0000296401328361
   6     0.0006934301790714
   7     0.1412860746036538
   8    -0.0000087867616456
   9     0.0005918019694881
  10    -0.0001428012968045
  11     0.0000864871208305
  12     0.0001549816098364
  13    -0.0220344823127479
  14    -0.0000029698412300
  15     0.0085980786394725
  16    -0.0297347488933710
  17     0.0362881272744394
  18    -0.4073502949654290
  19     0.0000236453782790
  20     0.0000686285867698
  21    -0.1412894433578633
  22     0.0000059878242438
  23    -0.0001238863558484
  24    -0.0001423089753940
  25     0.0001087357611087
  26     0.0002066205492622
  27    -0.0220347502318999
  28    -0.0000033043917685
  29     0.1699447670239308
  30     0.0567861400457401
  31     0.0006794740950658
  32    -0.0117117820064297
  33    -0.0000915737830347
  34     0.1699869165832358
  35     0.0568017324298127
  36     0.0006778690106362
  37     0.0117131594644223
  38     0.0000662329257402
  39     0.1699510593335621
  40     0.0567891661748775
  41    -0.0006791394345319
  42     0.0117117691521673
  43     0.0001325886353220
  44     0.1699928163214175
  45     0.0568031653592978
  46    -0.0006776237552667
  47    -0.0117135164817644
  48    -0.0000897463630400
 Ene=   -0.510662
 Spin=  Alpha
 Occup=    2.000000
   1    -0.0000024584748514
   2     0.0000055212750045
   3     0.0000109957943337
   4     0.0000331840802154
   5     0.3018019609755298
   6    -0.0008341443879875
   7     0.0000177026841664
   8     0.1388742615232169
   9    -0.0011556029587851
  10     0.0000008715297449
  11     0.0004117206017413
  12     0.0001252795245530
  13    -0.0000009230314290
  14     0.0269458921278927
  15     0.0000042064333371
  16    -0.0000095876730847
  17     0.0000043060687443
  18    -0.0000297700540990
  19    -0.3017546308932747
  20    -0.0057316128265297
  21    -0.0000122344264601
  22    -0.1388422970532093
  23    -0.0034092019345908
  24     0.0000019587132797
  25     0.0000256050193736
  26     0.0000892504556652
  27    -0.0000010285818052
  28     0.0269484995657061
  29     0.2571213740688957
  30     0.1142514274591201
  31    -0.0097768234222650
  32    -0.0091421134152925
  33    -0.0001792335057251
  34    -0.2570921597152899
  35    -0.1142355214314811
  36     0.0097774878032930
  37    -0.0091402406380930
  38    -0.0000975171549773
  39     0.2571254353770498
  40     0.1142532651011391
  41     0.0097772955410952
  42     0.0091441258400950
  43     0.0000354729901337
  44    -0.2570976318280562
  45    -0.1142379800077948
  46    -0.0097773150046042
  47     0.0091419023222960
  48    -0.0000154921763231
 Ene=    0.000000
 Spin=  Alpha
 Occup=    1.465949
   1     0.0000143891598488
   2    -0.0001114959628436
   3     0.0003701855538866
   4    -0.0001304441059213
   5    -0.0004110617756191
   6     0.3780477582020627
   7    -0.0001076714445727
   8    -0.0011845859648988
   9     0.3017793011392036
  10     0.0001036934546981
  11    -0.0346243338156112
  12    -0.0000003489435498
  13     0.0000126803095013
  14     0.0005249332742127
  15    -0.0000347366936018
  16     0.0001393223721907
  17    -0.0004313783522544
  18     0.0007495844325354
  19    -0.0057236870981889
  20     0.3780131863851240
  21     0.0002445244591745
  22    -0.0037127570304037
  23     0.3017710626388926
  24    -0.0000831111770883
  25     0.0346278423893162
  26     0.0000018411450164
  27     0.0000305517101584
  28    -0.0000370045768336
  29     0.0023307629200930
  30     0.0006187480961158
  31    -0.0001108598798101
  32    -0.0001873674232511
  33     0.0092939923512503
  34    -0.0018877926215755
  35    -0.0016178570763493
  36     0.0000128654538128
  37    -0.0000859561820208
  38     0.0092958863074176
  39     0.0016787268787193
  40     0.0014302658103601
  41     0.0000338529625706
  42    -0.0000716928537494
  43     0.0092957395783878
  44    -0.0025397237477679
  45    -0.0008062785030127
  46    -0.0000898719396983
  47     0.0000433232348383
  48     0.0092967092373489
 Ene=    0.000000
 Spin=  Alpha
 Occup=    0.534051
   1    -0.0012154409342426
   2     0.0029489724647128
   3     0.0155327621056734
   4     0.0021947386372395
   5     0.0025743261928991
   6    -0.3564280101517554
   7     0.0053851189076924
   8     0.0035640600906627
   9    -0.7393705524849032
  10     0.0000399541559484
  11    -0.0196549464461020
  12    -0.0000012192634199
  13     0.0000807542591429
  14     0.0005123457244988
  15    -0.0009597124869640
  16     0.0023408132788675
  17     0.0128860923167547
  18    -0.0023135347772540
  19    -0.0032102228369286
  20     0.3564178979217458
  21    -0.0056330791393607
  22    -0.0084349787056419
  23     0.7393348154683556
  24     0.0000407045473928
  25    -0.0196600481953994
  26    -0.0000006571112599
  27     0.0001148224599177
  28    -0.0001933272849541
  29    -0.0000660915560661
  30    -0.0081886797872640
  31     0.0001391388428300
  32     0.0000502273523542
  33    -0.0186134326477559
  34    -0.0022252635387664
  35    -0.0116885934989147
  36     0.0000081904518072
  37     0.0001015491612029
  38    -0.0186129470362096
  39    -0.0019810700512403
  40    -0.0109181853599933
  41    -0.0000146218001643
  42    -0.0001782429479268
  43     0.0186112480988496
  44     0.0001781856879158
  45    -0.0074178382374995
  46    -0.0001455822461457
  47    -0.0002740994678242
  48     0.0186119099587091
 Ene=    0.201703
 Spin=  Alpha
 Occup=    0.000000
   1     0.0743038014391020
   2    -0.1230662431746751
   3    -1.5577913085636752
   4    -0.1304370897291322
   5     0.0000051785303952
   6    -0.0037887597038981
   7    -0.5531509377171592
   8     0.0000263324759108
   9    -0.0107705429747930
  10     0.0022719641789604
  11    -0.0002411678432006
  12     0.0000153595020372
  13    -0.0038865464976463
  14     0.0000035967251778
  15     0.0743099198841943
  16    -0.1230766742320616
  17    -1.5578421345617419
  18     0.1304425345799171
  19    -0.0000394474022034
  20     0.0036338204361106
  21     0.5531509137037465
  22    -0.0001264895859063
  23     0.0100895199797237
  24     0.0022713020574337
  25    -0.0002367469299727
  26    -0.0000161266659220
  27    -0.0038865084663138
  28     0.0000004031229912
  29     0.0078014744672634
  30     1.0991681160785565
  31    -0.0053263275969617
  32    -0.0015783994343589
  33    -0.0001510978589817
  34     0.0077914663371954
  35     1.0990609073939299
  36    -0.0053267984744781
  37     0.0015802720654865
  38    -0.0001586429668579
  39     0.0077975477465415
  40     1.0990589207945431
  41     0.0053266258105143
  42     0.0015772800909214
  43     0.0001838903589530
  44     0.0078082565076403
  45     1.0992178009137232
  46     0.0053270021297630
  47    -0.0015805150909303
  48     0.0001251124338719
 Ene=    0.225904
 Spin=  Alpha
 Occup=    0.000000
   1     0.0000126303036439
   2    -0.0000145757080733
   3    -0.0002659151620910
   4    -0.0000113464323912
   5    -0.2198009036733722
   6    -0.0010131266723579
   7     0.0000111961633552
   8    -0.7572100292135266
   9    -0.0033564490037823
  10    -0.0000006069208527
  11     0.0001537306116065
  12    -0.0000508311188450
  13     0.0000005340404797
  14     0.0141313625493587
  15    -0.0000192590366409
  16     0.0000270849119982
  17     0.0004134037157669
  18    -0.0000212587383165
  19    -0.2197934792685828
  20    -0.0025539776595548
  21    -0.0000410346415338
  22    -0.7571874784561684
  23    -0.0089323413175995
  24     0.0000001583936130
  25    -0.0000756173375572
  26     0.0000492948334645
  27    -0.0000002420144254
  28    -0.0141316691026949
  29     0.0328101246278902
  30     1.1430290089574855
  31    -0.0023674191531772
  32    -0.0048084837294118
  33    -0.0000098659731865
  34    -0.0327966352908730
  35    -1.1427710050886908
  36     0.0023677206218396
  37    -0.0048080000649255
  38     0.0000033852438532
  39    -0.0328069075433121
  40    -1.1431437872481713
  41    -0.0023680625706717
  42    -0.0048083050699348
  43    -0.0000858477490996
  44     0.0327987205523484
  45     1.1426678648619872
  46     0.0023670149586699
  47    -0.0048071455128347
  48    -0.0000637061641179
 Ene=    0.238370
 Spin=  Alpha
 Occup=    0.000000
   1    -0.0946142116354577
   2     0.1254329721111616
   3     2.2600601166137864
   4     0.0814314691852438
   5    -0.0000370535688511
   6     0.0006376795109278
   7     0.1799982094181470
   8    -0.0001444794120842
   9     0.0029685170443458
  10    -0.0033804350941547
  11    -0.0000119232669516
  12     0.0001273444482312
  13    -0.0082036570244491
  14     0.0000014603016760
  15     0.0946129563076806
  16    -0.1254307236314864
  17    -2.2599728822600533
  18     0.0814298928274089
  19    -0.0000332124557806
  20     0.0002057290102743
  21     0.1799723658835323
  22    -0.0001416487198779
  23     0.0010807404357763
  24     0.0033801504107262
  25     0.0000394092570932
  26    -0.0001007966534063
  27     0.0082036073104371
  28    -0.0000015487401799
  29    -0.0073313434698120
  30    -1.2487099269493882
  31    -0.0000379513781027
  32     0.0055553187048165
  33     0.0000331883735931
  34    -0.0073332052853242
  35    -1.2491321189558213
  36    -0.0000361201529596
  37    -0.0055567400679252
  38    -0.0000696877417343
  39     0.0073361476050402
  40     1.2486427866665872
  41    -0.0000379398687078
  42     0.0055549579316928
  43     0.0000106696883391
  44     0.0073389329123028
  45     1.2490838888546245
  46    -0.0000359807335807
  47    -0.0055560900054006
  48    -0.0000667639125162
 Ene=    0.300593
 Spin=  Alpha
 Occup=    0.000000
   1     0.0000004306460166
   2    -0.0000028773181837
   3    -0.0000770061224603
   4    -0.0000021326530697
   5     0.1967469892836093
   6     0.0012161751335843
   7    -0.0000228629435602
   8     1.5927182535617976
   9     0.0118946599827521
  10     0.0000014723640275
  11     0.0001664398225925
  12     0.0000606285614864
  13     0.0000013451357900
  14     0.0185502004850100
  15     0.0000006922680389
  16    -0.0000045686131541
  17    -0.0000842697079245
  18     0.0000012132323382
  19    -0.1967374400145481
  20    -0.0019767882091651
  21     0.0000127900335391
  22    -1.5926879266107408
  23    -0.0139526279625119
  24     0.0000014761027022
  25     0.0001346024643684
  26     0.0000151849227642
  27     0.0000014356705627
  28     0.0185499748127689
  29     0.0234166229727116
  30    -1.6290949942487081
  31     0.0127299198062287
  32     0.0092309079809913
  33     0.0000648111459836
  34    -0.0234232431909105
  35     1.6291899986087461
  36    -0.0127298230831772
  37     0.0092313786973571
  38     0.0000627313589953
  39     0.0234128515936289
  40    -1.6290499650724548
  41    -0.0127297794489054
  42    -0.0092308539528550
  43    -0.0000674583498493
  44    -0.0234252677716126
  45     1.6291484286171836
  46     0.0127291838078947
  47    -0.0092315595450635
  48    -0.0001046341255455
 Ene=    0.477804
 Spin=  Alpha
 Occup=    0.000000
   1    -0.0575253575358938
   2     0.0814126210522985
   3     5.1032664587764103
   4    -0.1658254872874196
   5     0.0000021528273488
   6    -0.0004297020905285
   7    -3.4522417830325929
   8     0.0000051582451190
   9     0.0016428941207256
  10    -0.0043256621787753
  11     0.0000568361936540
  12     0.0001903887845646
  13    -0.0229525315558446
  14     0.0000026131453467
  15     0.0575266812607068
  16    -0.0814225153678814
  17    -5.1032742097561652
  18    -0.1658245788525587
  19     0.0000045966546525
  20    -0.0004212534189603
  21    -3.4522429764342033
  22     0.0000066494207105
  23     0.0018284451549808
  24     0.0043257799116653
  25    -0.0000737949447936
  26    -0.0003037312195275
  27     0.0229519782405021
  28    -0.0000028319515015
  29     0.1115139871920687
  30     0.2214382836365266
  31    -0.0054186455991447
  32     0.0071646877395077
  33     0.0000211375573467
  34     0.1114793091843637
  35     0.2215021070098858
  36    -0.0054210458349456
  37    -0.0071644266891618
  38    -0.0000631581433857
  39    -0.1115287334714818
  40    -0.2214089789755342
  41    -0.0054186063987625
  42     0.0071643669773999
  43     0.0000625624710569
  44    -0.1114906459796675
  45    -0.2214916445710161
  46    -0.0054218736351699
  47    -0.0071648292641281
  48    -0.0000856980612641
 Ene=    0.559928
 Spin=  Alpha
 Occup=    0.000000
   1    -0.0892565926008820
   2     0.7743745574331299
   3    -0.6670423449644813
   4    -0.3820127308659502
   5    -0.0000027321651862
   6    -0.0000751847844263
   7     0.7676250263145314
   8    -0.0000031220893343
   9     0.0002710417326553
  10    -0.0287499971680182
  11    -0.0000058748881604
  12     0.0000599274629723
  13     0.0411867669254706
  14    -0.0000005986459084
  15    -0.0892555449050618
  16     0.7743637764014030
  17    -0.6669905814287701
  18     0.3820150152764284
  19     0.0000070837499290
  20     0.0000047811043098
  21    -0.7676061822598320
  22    -0.0000122244507444
  23    -0.0002599205808469
  24    -0.0287490073047544
  25    -0.0000256272339493
  26     0.0000797704381478
  27     0.0411874094350686
  28    -0.0000028287341104
  29    -0.0593460326464059
  30     0.1960166293471766
  31     0.0307527701134324
  32    -0.0032265046275335
  33    -0.0000528298995331
  34    -0.0593494051272401
  35     0.1959929963142228
  36     0.0307504694458810
  37     0.0032249403865833
  38    -0.0000203474729757
  39    -0.0593651399800079
  40     0.1960252904507966
  41    -0.0307513975160374
  42     0.0032263029346570
  43     0.0000745226423901
  44    -0.0593374170948186
  45     0.1959912220548267
  46    -0.0307524091650087
  47    -0.0032260067371735
  48     0.0000022960109186
 Ene=    0.610038
 Spin=  Alpha
 Occup=    0.000000
   1    -0.0813051639902686
   2     0.6907385207615694
   3    -1.7597162903569514
   4     0.1210283608948980
   5     0.0000234559238015
   6    -0.0007072645218025
   7    -0.7210992932902126
   8    -0.0000593742157837
   9    -0.0041340964548314
  10    -0.0578608200561184
  11     0.0000140774156918
  12     0.0009960210962775
  13    -0.0339894955389270
  14     0.0000271684083431
  15    -0.0813031155676161
  16     0.6907469478623715
  17    -1.7599449222834245
  18    -0.1210359342802941
  19     0.0000151484273291
  20     0.0003064282943434
  21     0.7209276213548176
  22    -0.0002150171187721
  23     0.0037766481904315
  24    -0.0578605090577843
  25    -0.0000882410106043
  26     0.0011821404442528
  27    -0.0339887885118917
  28    -0.0000255238703351
  29     0.4648577472848239
  30     0.3988535039544541
  31    -0.0148640903491990
  32     0.0095841985704700
  33    -0.0001838188029253
  34     0.4645471072641726
  35     0.3990530808969281
  36    -0.0148875370260298
  37    -0.0095861739532957
  38    -0.0003713419072685
  39     0.4645833332355367
  40     0.3988893978724125
  41     0.0148925310675417
  42    -0.0095856579935253
  43     0.0001559113309434
  44     0.4648655541626723
  45     0.3989162410808607
  46     0.0148624830555279
  47     0.0095837623255044
  48     0.0002794813642411
 Ene=    0.617386
 Spin=  Alpha
 Occup=    0.000000
   1    -0.0000294923968268
   2     0.0002369089479197
   3    -0.0004428446629020
   4     0.0000359711640785
   5    -0.0651383624687703
   6    -0.0010368096218932
   7    -0.0003290702404465
   8     0.5335677697103980
   9     0.0014776297033121
  10    -0.0000201645131632
  11    -0.0008438031548291
  12    -0.0003463658662963
  13    -0.0000113757844746
  14    -0.1040380557960086
  15    -0.0000188934302405
  16     0.0001570746917045
  17    -0.0004744567981581
  18    -0.0000237598521440
  19    -0.0651331648032428
  20    -0.0000205459660255
  21     0.0000169339062153
  22     0.5334363081575068
  23     0.0071801426683336
  24    -0.0000119194561790
  25     0.0008445115885503
  26     0.0001979396343207
  27    -0.0000055821305384
  28     0.1040378645195017
  29    -0.5683816101408250
  30     0.1443881209685448
  31    -0.0535461003062006
  32     0.0032072117868744
  33    -0.0001930699496287
  34     0.5686377648317286
  35    -0.1440567058561133
  36     0.0535366904427905
  37     0.0031952243476810
  38     0.0000716213182620
  39     0.5686128349643976
  40    -0.1442277964222005
  41    -0.0535401699839151
  42     0.0032016796456005
  43     0.0000331817267413
  44    -0.5683944544469882
  45     0.1442936367307107
  46     0.0535455806459735
  47     0.0032008686464043
  48     0.0001921375836904
 Ene=    0.700322
 Spin=  Alpha
 Occup=    0.000000
   1     0.0007806267777549
   2    -0.0062733799246371
   3     0.0277729724584305
   4    -0.0014993848311533
   5    -0.0048426429785068
   6     0.7050028334243827
   7    -0.0071923888181389
   8     0.0040402807933778
   9    -0.6133880447195069
  10     0.0001951183936014
  11    -0.0633828194753113
  12    -0.0000014992279673
  13    -0.0000307691032477
  14     0.0005626933527121
  15    -0.0007155919789993
  16     0.0062708376834155
  17    -0.0289744023150632
  18    -0.0011382762485078
  19    -0.0065983699217798
  20     0.7049867675665632
  21    -0.0069463450017883
  22     0.0059142300461804
  23    -0.6133670940671052
  24    -0.0002685154342108
  25     0.0633834109255598
  26     0.0000043794058441
  27    -0.0000052671412440
  28    -0.0004658567072744
  29    -0.0008858874971931
  30    -0.0022236678095268
  31    -0.0000567877696831
  32    -0.0001127879479767
  33     0.0131969315265256
  34    -0.0013471023585007
  35    -0.0007990470336761
  36     0.0000108974961707
  37    -0.0000082301886116
  38     0.0132020871045598
  39     0.0019001843145678
  40     0.0012429640850264
  41     0.0000655006592301
  42    -0.0002067326727303
  43     0.0131945796095335
  44     0.0014381213401382
  45     0.0026681816849598
  46    -0.0000021635672382
  47    -0.0001005540813737
  48     0.0131998240477994
 Ene=    0.737949
 Spin=  Alpha
 Occup=    0.000000
   1     0.0056463721854112
   2    -0.5578189459485448
   3     4.2677182660016255
   4    -0.1708019415650688
   5     0.0000450185971862
   6    -0.0029280255619692
   7    -0.8335193899659811
   8    -0.0000958230613346
   9     0.0059979810549192
  10     0.0702843090713606
  11    -0.0000526936790270
  12    -0.0008927284837446
  13     0.0237760389154083
  14    -0.0000047870742721
  15    -0.0056369529752619
  16     0.5577573514094499
  17    -4.2674954382328396
  18    -0.1707744302775159
  19     0.0000392554227959
  20    -0.0031138607957052
  21    -0.8336151005385068
  22    -0.0000446944473699
  23     0.0043966607607762
  24    -0.0702765623088769
  25     0.0000269857520780
  26     0.0014687704042591
  27    -0.0237720860939423
  28     0.0000040901061751
  29    -0.5759012904592913
  30    -0.2912887561585521
  31     0.0087112702835166
  32    -0.0316665847958702
  33    -0.0000657579389032
  34    -0.5758522106088880
  35    -0.2914360812891367
  36     0.0087140178780314
  37     0.0316638379143968
  38     0.0003151036515013
  39     0.5759045679482026
  40     0.2912102029329094
  41     0.0087114310611054
  42    -0.0316645076043806
  43    -0.0003056925678751
  44     0.5758476550152529
  45     0.2913146645188389
  46     0.0087111411465517
  47     0.0316664606316733
  48     0.0003412124848440
 Ene=    0.805891
 Spin=  Alpha
 Occup=    0.000000
   1    -0.0007895350725907
   2     0.0037606497716316
   3    -0.0061878177251179
   4     0.0018657661834347
   5     0.0051184597062825
   6    -0.7777298796589149
   7    -0.0012374978310528
   8    -0.0074154443821082
   9     1.0974225797980899
  10     0.0003241579037487