[Molden Format]
[Atoms] Angs
 c       1                    6  6.695000000000e-01  0.000000000000e+00 -1.000000000000e-03
 c       2                    6 -6.695000000000e-01  0.000000000000e+00 -2.000000000000e-04
 h       3                    1  1.231400000000e+00  9.397000000000e-01  8.400000000000e-03
 h       4                    1  1.231400000000e+00 -9.397000000000e-01 -4.600000000000e-03
 h       5                    1 -1.231400000000e+00 -9.397000000000e-01 -1.090000000000e-02
 h       6                    1 -1.231400000000e+00  9.397000000000e-01  6.600000000000e-03
[GTO]
1
 s           5
      1.238401693800e+03      5.517365048110e-03
      1.862900499200e+02      4.108882855595e-02
      4.225117634600e+01      1.822538212649e-01
      1.167655793200e+01      4.682845943743e-01
      3.593050648200e+00      4.457581733600e-01
 s           1
      4.024514736300e-01      1.000000000000e+00
 s           1
      1.309018266800e-01      1.000000000000e+00
 p           3
      9.468097062100e+00      5.688833201104e-02
      2.010354514200e+00      3.129405933647e-01
      5.477100470700e-01      7.606501650914e-01
 p           1
      1.526861379500e-01      1.000000000000e+00
 d           1
      8.000000000000e-01      1.000000000000e+00

2
 s           5
      1.238401693800e+03      5.517365048110e-03
      1.862900499200e+02      4.108882855595e-02
      4.225117634600e+01      1.822538212649e-01
      1.167655793200e+01      4.682845943743e-01
      3.593050648200e+00      4.457581733600e-01
 s           1
      4.024514736300e-01      1.000000000000e+00
 s           1
      1.309018266800e-01      1.000000000000e+00
 p           3
      9.468097062100e+00      5.688833201104e-02
      2.010354514200e+00      3.129405933647e-01
      5.477100470700e-01      7.606501650914e-01
 p           1
      1.526861379500e-01      1.000000000000e+00
 d           1
      8.000000000000e-01      1.000000000000e+00

3
 s           3
      1.301070100000e+01      3.348548481299e-02
      1.962257200000e+00      2.347218708812e-01
      4.445379600000e-01      8.137702852596e-01
 s           1
      1.219496200000e-01      1.000000000000e+00
 p           1
      8.000000000000e-01      1.000000000000e+00

4
 s           3
      1.301070100000e+01      3.348548481299e-02
      1.962257200000e+00      2.347218708812e-01
      4.445379600000e-01      8.137702852596e-01
 s           1
      1.219496200000e-01      1.000000000000e+00
 p           1
      8.000000000000e-01      1.000000000000e+00

5
 s           3
      1.301070100000e+01      3.348548481299e-02
      1.962257200000e+00      2.347218708812e-01
      4.445379600000e-01      8.137702852596e-01
 s           1
      1.219496200000e-01      1.000000000000e+00
 p           1
      8.000000000000e-01      1.000000000000e+00

6
 s           3
      1.301070100000e+01      3.348548481299e-02
      1.962257200000e+00      2.347218708812e-01
      4.445379600000e-01      8.137702852596e-01
 s           1
      1.219496200000e-01      1.000000000000e+00
 p           1
      8.000000000000e-01      1.000000000000e+00


[5D]
[7F]
[9G]
[MO]
 Ene=  -11.239331
 Spin=  Alpha
 Occup=    2.000000
   1     0.6999529760763571
   2     0.0230407672204637
   3    -0.0112619833540981
   4     0.0012292657206668
   5    -0.0000000455221664
   6     0.0000052506720587
   7    -0.0005702662878786
   8     0.0000001160719275
   9    -0.0000104187806002
  10    -0.0007780892521933
  11     0.0000040492382675
  12     0.0000086686754492
  13     0.0000265813001361
  14    -0.0000000868505565
  15     0.7014519945200712
  16     0.0230988633636806
  17    -0.0113110721366690
  18    -0.0012279013760212
  19     0.0000000397251539
  20    -0.0000036342419965
  21     0.0005659492737949
  22    -0.0000000740778006
  23     0.0000082217256409
  24    -0.0007815860775808
  25     0.0000032771648356
  26     0.0000128268905398
  27     0.0000266208627223
  28    -0.0000000875887334
  29    -0.0014544296345639
  30     0.0032844704200050
  31     0.0001121948646216
  32     0.0007623770057861
  33     0.0000087642406327
  34    -0.0014545554351740
  35     0.0032847146075271
  36     0.0001121324472597
  37    -0.0007623519666633
  38    -0.0000018816939731
  39    -0.0014584017921565
  40     0.0032931841890869
  41    -0.0001139892561681
  42    -0.0007646753627269
  43    -0.0000095021564164
  44    -0.0014585264697056
  45     0.0032933392238708
  46    -0.0001139402629437
  47     0.0007646553855736
  48     0.0000046388339181
 Ene=  -11.237771
 Spin=  Alpha
 Occup=    2.000000
   1     0.7013179435476670
   2     0.0272356095322285
   3    -0.0231066165332272
   4    -0.0006348682876607
   5    -0.0000001289375755
   6     0.0000106136493056
   7     0.0020112411240925
   8     0.0000000655863829
   9    -0.0000120810708154
  10    -0.0016649664245092
  11     0.0000027694953758
  12     0.0000205283854538
  13     0.0000250590834982
  14    -0.0000000644861936
  15    -0.6998186750536085
  16    -0.0271860888749317
  17     0.0230821593465542
  18    -0.0006375513864433
  19    -0.0000001341737658
  20     0.0000085848238959
  21     0.0020125358483012
  22     0.0000002284927681
  23    -0.0000079403954815
  24     0.0016632204165116
  25    -0.0000010532809454
  26    -0.0000258389643396
  27    -0.0000250312473141
  28     0.0000000557246775
  29    -0.0018686877890266
  30     0.0041066908202646
  31     0.0008257057392651
  32     0.0010669388827721
  33     0.0000119364678528
  34    -0.0018688756370806
  35     0.0041069425983025
  36     0.0008256830908704
  37    -0.0010669287261958
  38    -0.0000029261324567
  39     0.0018655543394269
  40    -0.0040994297070205
  41     0.0008254842022304
  42     0.0010653153237151
  43     0.0000127729357503
  44     0.0018656779011081
  45    -0.0040998407747761
  46     0.0008254481050300
  47    -0.0010653060190995
  48    -0.0000069640844429
 Ene=   -1.018558
 Spin=  Alpha
 Occup=    2.000000
   1     0.1997288915697971
   2    -0.3811776752026373
   3    -0.1198921289878373
   4     0.1197227987466108
   5     0.0000030563514377
   6    -0.0001791252224679
   7     0.0212523500496132
   8    -0.0000036446888446
   9     0.0000213059790668
  10     0.0099654253583250
  11     0.0000081305894647
  12    -0.0000209611305992
  13    -0.0140165750361121
  14     0.0000002316535365
  15     0.1997266674186637
  16    -0.3811753058785406
  17    -0.1198926052099543
  18    -0.1197254477995927
  19    -0.0000025044296376
  20     0.0001213792635362
  21    -0.0212520945584473
  22     0.0000036045797066
  23    -0.0000295312598799
  24     0.0099654595144444
  25     0.0000080554512883
  26    -0.0000316875485996
  27    -0.0140168290792155
  28     0.0000002435259812
  29    -0.1062542113297562
  30    -0.0095598048178745
  31     0.0092381560832236
  32     0.0132373556214301
  33     0.0001267726693625
  34    -0.1062621588617894
  35    -0.0095628874978876
  36     0.0092392270056531
  37    -0.0132384902396459
  38    -0.0000542050905919
  39    -0.1062503378819444
  40    -0.0095591745316081
  41    -0.0092377571029385
  42    -0.0132365541067036
  43    -0.0001482975717511
  44    -0.1062574228608148
  45    -0.0095620490572480
  46    -0.0092387174784144
  47     0.0132375615341474
  48     0.0001003652413876
 Ene=   -0.777556
 Spin=  Alpha
 Occup=    2.000000
   1    -0.1525288829677263
   2     0.3051484947343563
   3     0.1147101619677363
   4     0.1592128875296353
   5    -0.0000196021912272
   6     0.0004983960803165
   7     0.0673381822170778
   8    -0.0000040483496557
   9     0.0001060048385668
  10    -0.0048218761936399
  11     0.0000260184606733
  12     0.0001361688117318
  13    -0.0109660203705381
  14    -0.0000007484905785
  15     0.1525317324138901
  16    -0.3051562607277938
  17    -0.1147149970394459
  18     0.1592004313215675
  19    -0.0000183751210397
  20     0.0003828675223938
  21     0.0673364930374864
  22    -0.0000037688587912
  23     0.0000893757976310
  24     0.0048214925051241
  25    -0.0000110723083113
  26    -0.0001773294202669
  27     0.0109652206556688
  28     0.0000005741911492
  29     0.1936531742903967
  30     0.0387756700072794
  31    -0.0070382360280631
  32    -0.0173702776683933
  33    -0.0001657313987893
  34     0.1936799884872908
  35     0.0387798763107326
  36    -0.0070398693150083
  37     0.0173723818085906
  38     0.0000688737850614
  39    -0.1936494232752427
  40    -0.0387748714818210
  41    -0.0070382410436386
  42    -0.0173695024730155
  43    -0.0001964956149971
  44    -0.1936739235230859
  45    -0.0387789188416475
  46    -0.0070397530502342
  47     0.0173714232288623
  48     0.0001326924762216
 Ene=   -0.639994
 Spin=  Alpha
 Occup=    2.000000
   1     0.0000061671625899
   2    -0.0000138714641884
   3    -0.0000081451540420
   4    -0.0000063062748488
   5    -0.3122521496895085
   6    -0.0023315495844398
   7    -0.0000059926018672
   8    -0.1214275592944338
   9    -0.0009264619705917
  10    -0.0000008202669667
  11    -0.0000041129880746
  12    -0.0000849272287035
  13    -0.0000000499630401
  14    -0.0029887428707716
  15    -0.0000061787735018
  16     0.0000138458827791
  17     0.0000080414760101
  18    -0.0000069623867014
  19    -0.3122428465766896
  20    -0.0027357764399574
  21    -0.0000062234173790
  22    -0.1214282510601249
  23    -0.0010441450487067
  24     0.0000006945076720
  25     0.0000443808201420
  26     0.0000576443460611
  27     0.0000000039058256
  28     0.0029875243457310
  29    -0.2080995703229165
  30    -0.0572722030230674
  31     0.0094466753181360
  32     0.0098170502681563
  33     0.0001160277191389
  34     0.2080812958134339
  35     0.0572654122827658
  36    -0.0094461840406190
  37     0.0098160031728699
  38     0.0000117345188430
  39     0.2080944108727857
  40     0.0572698326614191
  41     0.0094463465864830
  42     0.0098170184605901
  43     0.0001309624950130
  44    -0.2080764345685300
  45    -0.0572634556620735
  46    -0.0094459325438951
  47     0.0098160097291932
  48     0.0000598959163899
 Ene=   -0.582487
 Spin=  Alpha
 Occup=    2.000000
   1    -0.0125882846146496
   2     0.0343650358795364
   3    -0.0269998824835604
   4    -0.4062209839126591
   5     0.0000312618169618
   6    -0.0004081691607771
   7    -0.1463023395351842
   8     0.0000077416880876
   9    -0.0001848783720598
  10     0.0016928686635932
  11    -0.0000736063185768
  12    -0.0001692008566203
  13     0.0201995930523727
  14     0.0000034834718750
  15    -0.0125842699037007
  16     0.0343560232609674
  17    -0.0270066362154827
  18     0.4062251643057144
  19    -0.0000295232545524
  20     0.0001153656028502
  21     0.1463062262176613
  22    -0.0000070133350058
  23     0.0000616917843117
  24     0.0016924817128344
  25    -0.0000763301338792
  26    -0.0002061962996000
  27     0.0201997711387021
  28     0.0000034731802063
  29    -0.1689228133845189
  30    -0.0591597777599681
  31    -0.0013163201678764
  32     0.0116698287929265
  33     0.0001096311859058
  34    -0.1689728415537546
  35    -0.0591787254146655
  36    -0.0013146773123941
  37    -0.0116717998647162
  38    -0.0000488526438653
  39    -0.1689274692746836
  40    -0.0591618013226876
  41     0.0013161116465123
  42    -0.0116698986809483
  43    -0.0001340365631532
  44    -0.1689767052499828
  45    -0.0591807196895512
  46     0.0013143870690119
  47     0.0116718901547181
  48     0.0000862626575432
 Ene=   -0.504954
 Spin=  Alpha
 Occup=    2.000000
   1    -0.0000007703103054
   2     0.0000015716084930
   3    -0.0000083626222223
   4    -0.0000343740657968
   5    -0.2969765220376868
   6    -0.0015536446304255
   7    -0.0000164450776195
   8    -0.1332117343802822
   9    -0.0006386584649576
  10    -0.0000010497955869
  11    -0.0002622472147314
  12    -0.0001003060823004
  13     0.0000011374393193
  14    -0.0282594861337822
  15    -0.0000023288499649
  16     0.0000051457554938
  17    -0.0000056413655742
  18     0.0000338841463988
  19     0.2969651679048096
  20     0.0032657757085501
  21     0.0000159615649161
  22     0.1332074467673792
  23     0.0015231705612656
  24    -0.0000011186366386
  25    -0.0001963731781013
  26    -0.0000732437869805
  27     0.0000011540606709
  28    -0.0282596540976174
  29    -0.2591004179482596
  30    -0.1201118139912110
  31     0.0090730536783243
  32     0.0093501061358225
  33     0.0001303611841878
  34     0.2590682737954854
  35     0.1200945888839606
  36    -0.0090735150049825
  37     0.0093479464298485
  38     0.0000186465091896
  39    -0.2591022879567995
  40    -0.1201126848017201
  41    -0.0090731658912515
  42    -0.0093507938842585
  43    -0.0001151820035622
  44     0.2590714732567057
  45     0.1200967011722772
  46     0.0090734825405194
  47    -0.0093487105987095
  48    -0.0000392771385288
 Ene=   -0.375724
 Spin=  Alpha
 Occup=    2.000000
   1    -0.0004037761001049
   2     0.0009236854196291
   3     0.0006295835832247
   4     0.0003164160875350
   5     0.0023228911786705
   6    -0.3837435522146566
   7     0.0003720698500141
   8     0.0018953565689592
   9    -0.2977509366702025
  10    -0.0000435596896861
  11     0.0279185537135797
  12     0.0000004747474402
  13    -0.0000031587602074
  14    -0.0002943784449255
  15     0.0003450903166802
  16    -0.0007986547043798
  17    -0.0004161720658242
  18    -0.0000705914729316
  19     0.0039045899842119
  20    -0.3837308602178162
  21     0.0001510221959811
  22     0.0029366255762759
  23    -0.2977421130586133
  24     0.0000433811430291
  25    -0.0279197674919069
  26    -0.0000007456639603
  27    -0.0000069398624487
  28     0.0001587094933945
  29    -0.0006038047333597
  30    -0.0003205286898191
  31     0.0000403440126596
  32     0.0001078720832840
  33    -0.0104313581860995
  34     0.0003496836003099
  35     0.0003622014354913
  36     0.0000291608527608
  37     0.0000622503873487
  38    -0.0104323222095704
  39    -0.0003414840320023
  40    -0.0003216575184084
  41     0.0000126869291571
  42     0.0001038212819853
  43    -0.0104314281200590
  44     0.0006120084071796
  45     0.0003610558164938
  46     0.0000238717382723
  47     0.0000646338708405
  48    -0.0104320669765390
 Ene=    0.163847
 Spin=  Alpha
 Occup=    0.000000
   1    -0.0004913259832863
   2     0.0006655360946776
   3     0.0077111875700555
   4     0.0011200957655220
   5     0.0022420000504755
   6    -0.3459513882807004
   7     0.0029463856990429
   8     0.0047888078209165
   9    -0.7538977980233809
  10     0.0000331104727555
  11    -0.0214693122148842
  12    -0.0000002516995662
  13     0.0000264210800308
  14     0.0002299912496960
  15    -0.0003041917305874
  16     0.0003642279966761
  17     0.0060558821307971
  18    -0.0009142829834710
  19    -0.0033723117706581
  20     0.3459447527257776
  21    -0.0021196197508683
  22    -0.0074458057352286
  23     0.7538821929550427
  24     0.0000324414825670
  25    -0.0214699057109446
  26    -0.0000003044828627
  27     0.0000246289916885
  28     0.0001184333513267
  29    -0.0004964957348005
  30    -0.0030767345703628
  31     0.0000385278383881
  32     0.0001455343692329
  33    -0.0175244121072380
  34    -0.0011321819129100
  35    -0.0055560596518711
  36     0.0000124924140963
  37     0.0000824621271029
  38    -0.0175254065955076
  39    -0.0008920311667347
  40    -0.0044754303137237
  41    -0.0000121160389138
  42    -0.0001883143987562
  43     0.0175239356122591
  44    -0.0002563628556118
  45    -0.0019961159056851
  46    -0.0000381555323801
  47    -0.0001524953361770
  48     0.0175250554671078
 Ene=    0.203758
 Spin=  Alpha
 Occup=    0.000000
   1     0.0735994266077025
   2    -0.1180174468105091
   3    -1.5633855489705357
   4    -0.1324425773971119
   5    -0.0000022753773596
   6    -0.0015402226266243
   7    -0.5514702701156966
   8     0.0000227252638702
   9    -0.0062272120815680
  10     0.0027317402514526
  11    -0.0001191048512180
  12     0.0000149332830200
  13    -0.0043290152418927
  14     0.0000015323991369
  15     0.0736066722724080
  16    -0.1180293931991290
  17    -1.5634754131352731
  18     0.1324498278135472
  19    -0.0000107805812123
  20     0.0013716124859781
  21     0.5514737473082260
  22    -0.0000605127947168
  23     0.0055057203067080
  24     0.0027310503609809
  25    -0.0001156583714279
  26    -0.0000214468791246
  27    -0.0043290164738876
  28     0.0000003998987191
  29     0.0072019858121181
  30     1.1008595847509506
  31    -0.0052517780987946
  32    -0.0015059149536518
  33    -0.0000527928996859
  34     0.0071980737193296
  35     1.1008402550689416
  36    -0.0052523647641399
  37     0.0015064852024064
  38    -0.0000540466294998
  39     0.0072031321254794
  40     1.1008583046729068
  41     0.0052521255416030
  42     0.0015052276002120
  43     0.0000762495057093
  44     0.0072083705034250
  45     1.1009390569159070
  46     0.0052524838502074
  47    -0.0015064311448818
  48     0.0000261280705981
 Ene=    0.230164
 Spin=  Alpha
 Occup=    0.000000
   1     0.0000175782946611
   2    -0.0000215565369514
   3    -0.0003814925916872
   4    -0.0000175302653998
   5    -0.2189933616673020
   6    -0.0011736807414680
   7    -0.0000100459096549
   8    -0.7628420282580324
   9    -0.0037650391606192
  10    -0.0000002595406308
  11     0.0001267862931315
  12    -0.0000489567104886
  13     0.0000005499638583
  14     0.0113442238715991
  15    -0.0000205853943983
  16     0.0000275446198729
  17     0.0004517002523700
  18    -0.0000217847034084
  19    -0.2189912570067217
  20    -0.0023804879206980
  21    -0.0000341986926086
  22    -0.7628404790871350
  23    -0.0086155712867166
  24    -0.0000001185192122
  25    -0.0000573245591653
  26     0.0000528861156041
  27    -0.0000004590033162
  28    -0.0113443344857553
  29     0.0273873102666329
  30     1.1494414899177319
  31    -0.0023894403448857
  32    -0.0053185531002697
  33    -0.0000396859471869
  34    -0.0273740925775568
  35    -1.1490411353135765
  36     0.0023893632439320
  37    -0.0053177966667755
  38     0.0000066785178205
  39    -0.0273835670906111
  40    -1.1495168763959760
  41    -0.0023896951019037
  42    -0.0053183679579867
  43    -0.0000956946851754
  44     0.0273768141284601
  45     1.1490091792753117
  46     0.0023891560285678
  47    -0.0053173308982451
  48    -0.0000439020362077
 Ene=    0.239796
 Spin=  Alpha
 Occup=    0.000000
   1     0.0940850017485918
   2    -0.1224436949973236
   3    -2.2568815184290272
   4    -0.0850238506622108
   5     0.0000462658295514
   6    -0.0008091591436130
   7    -0.1843426859966641
   8     0.0001869481709683
   9    -0.0031916492592346
  10     0.0044586545124993
  11    -0.0000024787297110
  12    -0.0001269607700552
  13     0.0074127718594754
  14    -0.0000012134134366
  15    -0.0940819910899846
  16     0.1224392486396138
  17     2.2567537736468446
  18    -0.0850200879250180
  19     0.0000414243273829
  20    -0.0003595376820656
  21    -0.1843025636403212
  22     0.0001561911977643
  23    -0.0011826114415846
  24    -0.0044579089336302
  25    -0.0000310321622364
  26     0.0001186420959051
  27    -0.0074127180925711
  28     0.0000015758165011
  29     0.0044327820308272
  30     1.2509983565724119
  31     0.0000572113192631
  32    -0.0055747553536300
  33    -0.0000557535026517
  34     0.0044358209544342
  35     1.2515332090409970
  36     0.0000548696802936
  37     0.0055770282357324
  38     0.0000524291673372
  39    -0.0044387443611648
  40    -1.2509342303000859
  41     0.0000570944669823
  42    -0.0055743664703550
  43    -0.0000259506509343
  44    -0.0044408572376067
  45    -1.2514253985704413
  46     0.0000552469050272
  47     0.0055763215993713
  48     0.0000468049987631
 Ene=    0.302815
 Spin=  Alpha
 Occup=    0.000000
   1     0.0000006341274702
   2     0.0000013344132970
   3     0.0000544556985694
   4     0.0000009185365724
   5    -0.1943313510828205
   6    -0.0012414451625686
   7     0.0000194707444561
   8    -1.6015267833744300
   9    -0.0118978540250656
  10    -0.0000013454666322
  11    -0.0001622521892911
  12    -0.0000493483696556
  13    -0.0000012820116595
  14    -0.0199939820137045
  15    -0.0000016223274082
  16     0.0000061410299950
  17     0.0001015032700557
  18    -0.0000022156198873
  19     0.1943206619622075
  20     0.0019122076964511
  21    -0.0000139328197812
  22     1.6014861190287948
  23     0.0140920677674881
  24    -0.0000013265249124
  25    -0.0001622146414856
  26    -0.0000067953371858
  27    -0.0000013368434419
  28    -0.0199936801534722
  29    -0.0265295302420089
  30     1.6340066692928301
  31    -0.0131234736502685
  32    -0.0095605766198715
  33    -0.0000688504560258
  34     0.0265374897272563
  35    -1.6340759206300211
  36     0.0131232442583467
  37    -0.0095610715887836
  38    -0.0000566942005461
  39    -0.0265272342847006
  40     1.6339266435452555
  41     0.0131231400096582
  42     0.0095602991625572
  43     0.0000771865467504
  44     0.0265385835586154
  45    -1.6340440379205219
  46    -0.0131226883488848
  47     0.0095611168032028
  48     0.0001075916508265
 Ene=    0.480573
 Spin=  Alpha
 Occup=    0.000000
   1    -0.0570410203712060
   2     0.0831216932922852
   3     5.0888035660352706
   4    -0.1538181983592995
   5     0.0000025681637439
   6    -0.0005889491396306
   7    -3.4621386137949055
   8     0.0000075498215108
   9     0.0014185921161816
  10    -0.0058279067829964
  11     0.0000616400839419
  12     0.0002124128839110
  13    -0.0226690906623128
  14     0.0000024068993759
  15     0.0570419841437534
  16    -0.0831310746852337
  17    -5.0888016663909008
  18    -0.1538158631503025
  19     0.0000047652675697
  20    -0.0004404668262694
  21    -3.4621474296251931
  22     0.0000058459821493
  23     0.0020301270140768
  24     0.0058281840508732
  25    -0.0000799146570209
  26    -0.0003193426568210
  27     0.0226691284580524
  28    -0.0000024931661788
  29     0.1221900245949661
  30     0.2215633951445783
  31    -0.0050221522311224
  32     0.0070852234988643
  33     0.0000076771654292
  34     0.1221570825461116
  35     0.2216281345537027
  36    -0.0050249800697037
  37    -0.0070851914218144
  38    -0.0000820125262221
  39    -0.1222077291532794
  40    -0.2215395316406714
  41    -0.0050229524778135
  42     0.0070853122212076
  43     0.0000513766979341
  44    -0.1221715942685032
  45    -0.2216194079754966
  46    -0.0050255319052894
  47    -0.0070853970396133
  48    -0.0000889162570332
 Ene=    0.568805
 Spin=  Alpha
 Occup=    0.000000
   1     0.0869000968301549
   2    -0.7469837240041071
   3     0.5844972002030489
   4     0.3913324924473118
   5     0.0000038518433976
   6     0.0001836192061660
   7    -0.7990879625303212
   8    -0.0000019646748835
   9    -0.0002159884618251
  10     0.0272636949159979
  11     0.0000114227212398
  12    -0.0000435041221186
  13    -0.0410176727849078
  14     0.0000015770910601
  15     0.0868996275241448
  16    -0.7469743422632484
  17     0.5844195720460627
  18    -0.3913372669424913
  19    -0.0000046512854743
  20    -0.0000569061957875
  21     0.7990497242596384
  22     0.0000046009269633
  23     0.0001373988497207
  24     0.0272626642868270
  25     0.0000348223017914
  26    -0.0000571564573104
  27    -0.0410182236138223
  28     0.0000018330211447
  29     0.0799730737958196
  30    -0.1736136564144433
  31    -0.0317405879262643
  32     0.0034255592080000
  33     0.0000559201722133
  34     0.0799631152767144
  35    -0.1735812683119118
  36    -0.0317396283091307
  37    -0.0034246383438832
  38     0.0000174684006168
  39     0.0799802394542903
  40    -0.1736221802461162
  41     0.0317406464245277
  42    -0.0034258704827450
  43    -0.0000718078435493
  44     0.0799642428070080
  45    -0.1735862148883066
  46     0.0317401939002760
  47     0.0034251744942853
  48     0.0000009203199547
 Ene=    0.610684
 Spin=  Alpha
 Occup=    0.000000
   1     0.0855451617698540
   2    -0.7227618048483042
   3     1.7838955970958010
   4    -0.1040054170160015
   5    -0.0000143673385642
   6     0.0010074068389455
   7     0.6892155218994978
   8    -0.0000313426597331
   9     0.0041263363723677
  10     0.0588551126296826
  11     0.0000002163319581
  12    -0.0009933474541076
  13     0.0315895923192894
  14    -0.0000094425149608
  15     0.0855428646772348
  16    -0.7227731410018664
  17     1.7841772156522542
  18     0.1040138778900331
  19    -0.0000032900176848
  20    -0.0004179402886098
  21    -0.6890214501075632
  22     0.0001267687649414
  23    -0.0039029897750444
  24     0.0588549654250912
  25     0.0001169087257033
  26    -0.0011737918981714
  27     0.0315889482284739
  28     0.0000075610477936
  29    -0.4628172271199981
  30    -0.4053956597077619
  31     0.0130679568293034
  32    -0.0090662413182122
  33     0.0002204201245141
  34    -0.4626999303898277
  35    -0.4055442805549394
  36     0.0130738292328912
  37     0.0090671653934186
  38     0.0003890180079477
  39    -0.4627369103358958
  40    -0.4053842236519469
  41    -0.0130788245872654
  42     0.0090667673085379
  43    -0.0001747459569941
  44    -0.4628269259425806
  45    -0.4054606462475276
  46    -0.0130665482620097
  47    -0.0090653062508974
  48    -0.0003003942342884
 Ene=    0.623239
 Spin=  Alpha
 Occup=    0.000000
   1    -0.0000135978342469
   2     0.0001111201751991
   3    -0.0001741612881158
   4     0.0000164140552198
   5    -0.0606426783752972
   6    -0.0006955194822458
   7    -0.0002134909815060
   8     0.5361566525025059
   9     0.0027461036183852
  10    -0.0000099971699274
  11    -0.0008126791036219
  12    -0.0003555040091350
  13    -0.0000058230521007
  14    -0.1026486242681263
  15    -0.0000033619013561
  16     0.0000309339373200
  17    -0.0001757030792641
  18    -0.0000026825888100
  19    -0.0606316853049040
  20    -0.0002888356609935
  21    -0.0000838893056623
  22     0.5360481214260661
  23     0.0059539736870472
  24    -0.0000017064625285
  25     0.0008530997059951
  26     0.0002021282522205
  27    -0.0000001716691649
  28     0.1026483976116338
  29    -0.5685997748028579
  30     0.1401399822497446
  31    -0.0547795699761199
  32     0.0036291300414822
  33    -0.0001638133255037
  34     0.5687005923952759
  35    -0.1399189467478103
  36     0.0547751433146464
  37     0.0036207873596324
  38     0.0000992526620860
  39     0.5686766395504721
  40    -0.1400903956408649
  41    -0.0547787647353093
  42     0.0036274324541013
  43     0.0000117107232217
  44    -0.5686127551976219
  45     0.1400429496618364
  46     0.0547793411383968
  47     0.0036234790918538
  48     0.0001704978633291
 Ene=    0.704773
 Spin=  Alpha
 Occup=    0.000000
   1     0.0008485423890597
   2    -0.0069957543773332
   3     0.0326480059002082
   4    -0.0016211076545778
   5    -0.0047597541947155
   6     0.7030466413778190
   7    -0.0084022824312939
   8     0.0036212586563572
   9    -0.6148274357618431
  10     0.0001597846455860
  11    -0.0631440842580098
  12    -0.0000011045169420
  13    -0.0000301159399902
  14     0.0005511964577141
  15    -0.0007893949779895
  16     0.0071064038884494
  17    -0.0340288004326660
  18    -0.0012061901093446
  19    -0.0066495678494548
  20     0.7030355793493186
  21    -0.0081618701997885
  22     0.0063567154135130
  23    -0.6148093933309258
  24    -0.0002720183091605
  25     0.0631443590940190
  26     0.0000045074461230
  27    -0.0000183569892153
  28    -0.0004734637056247
  29    -0.0011008683694340
  30    -0.0025000054727778
  31    -0.0000557637202353
  32    -0.0001071526462734
  33     0.0126886084193472
  34    -0.0014542042373180
  35    -0.0016911616164548
  36     0.0000465866768222
  37    -0.0000395964048066
  38     0.0126932624439851
  39     0.0021676629445181
  40     0.0020888536148184
  41     0.0000959964554657
  42    -0.0001835392610172
  43     0.0126863710505165
  44     0.0018133087144794
  45     0.0028984057722469
  46    -0.0000063182113270
  47    -0.0000815111290899
  48     0.0126918320633181
 Ene=    0.746619
 Spin=  Alpha
 Occup=    0.000000
   1     0.0049703734940882
   2    -0.5620146094603812
   3     4.3872915526331910
   4    -0.1696986994229235
   5     0.0000454898469036
   6    -0.0032222189235930
   7    -0.8968456342242753
   8    -0.0000963924835853
   9     0.0063529658764775
  10     0.0679483513820340
  11     0.0000053727313710
  12    -0.0008786665219867
  13     0.0229624074580438
  14    -0.0000048786403411
  15    -0.0049601559206475
  16     0.5619469152277299
  17    -4.3870534829785370
  18    -0.1696694836081462
  19     0.0000443927339451
  20    -0.0034896955219372
  21    -0.8969467448736596
  22    -0.0000500519079763
  23     0.0049464335679529
  24    -0.0679412144034269
  25    -0.0000219974657595
  26     0.0014039741726853
  27    -0.0229588152987749
  28     0.0000046083582228
  29    -0.5737787000253046
  30    -0.2951844478268603
  31     0.0076993276370756
  32    -0.0312183503009268
  33    -0.0000480983201308
  34    -0.5737334853692145
  35    -0.2953278640924514
  36     0.0077014809421002
  37     0.0312160705134573
  38     0.0003156976947871
  39     0.5737834120613737
  40     0.2950985408757447
  41     0.0076986442828113
  42    -0.0312169282197591
  43    -0.0003033028896567
  44     0.5737234028732842
  45     0.2952038021594233
  46     0.0076990116820668
  47     0.0312181509868748
  48     0.0003461243180901
 Ene=    0.816152
 Spin=  Alpha
 Occup=    0.000000
   1    -0.0009052664830575
   2     0.0043456682578523
   3    -0.0072329427359704
   4     0.0021340213941978
   5     0.0051842813533022
   6    -0.7816740631815992
   7    -0.0015957862253332
   8    -0.0075418680733677
   9     1.0890511900528514
  10     0.0004230325589798